LAMMPS data file via write_data, version 3 Mar 2020, timestep = 10000000

8120 atoms
4 atom types
8110 bonds
7 bond types
16200 angles
15 angle types
24210 dihedrals
18 dihedral types
10800 impropers
14 improper types

-3.3469424205603140e+00 3.8663232144494117e+01 xlo xhi
1.3731822264396918e+00 4.3383356791494123e+01 ylo yhi
2.2007572554397825e+00 4.4210931820494224e+01 zlo zhi

Masses

1 1.00797 	# hc
2 12.0112 	# c3
3 12.0112 	# c1
4 12.0112 	# c2


Atoms # full

402 45 1 5.2999999999999999e-02 2.8412309253373902e-01 3.2275385664071257e+00 4.0456885913459288e+00 0 1 1
399 45 3 -5.2999999999999999e-02 4.3026442933479325e-01 2.3492594438423664e+00 3.3924060530541347e+00 0 1 1
610 68 2 -1.5900000000000000e-01 1.9232319483844220e+00 1.0224678029153097e+01 4.3733745283876235e+00 0 1 1
613 68 1 5.2999999999999999e-02 1.4633285198514931e+00 9.2116403871521442e+00 4.3205076291536271e+00 0 1 1
4429 491 1 5.2999999999999999e-02 6.3347395016873254e-01 6.2437283500703193e+00 4.5503806989804509e+00 1 0 0
4426 491 1 5.2999999999999999e-02 -1.3126650295186817e+00 5.5839239235551643e+00 5.7400023862282428e+00 1 0 0
395 44 1 5.2999999999999999e-02 -1.4247067032230989e+00 2.7802381954934878e+00 5.6511363830840100e+00 0 1 1
408 46 3 -5.2999999999999999e-02 2.9018640034620997e+00 2.9330026135449168e+00 2.8034787209748782e+00 0 1 1
394 44 2 -1.5900000000000000e-01 -6.1871776114959820e-01 2.2240884872764077e+00 6.2144320383523324e+00 0 1 1
476 53 1 5.2999999999999999e-02 9.8328938001002548e+00 1.0433254512418527e+01 5.0473360243293808e+00 0 1 1
4424 491 1 5.2999999999999999e-02 1.0196647889524346e-02 7.5086680803622787e+00 6.8142193291793394e+00 1 0 0
396 44 1 5.2999999999999999e-02 2.7496368202930332e-01 2.9153204793263345e+00 6.1471527109172639e+00 0 1 1
407 46 4 -1.0600000000000000e-01 1.9323496564144413e+00 1.9006469949657618e+00 3.3511051362356046e+00 0 1 1
419 47 1 5.2999999999999999e-02 1.9799682841006012e+00 4.4762845622566960e+00 4.1670360655287055e+00 0 1 1
3654 405 1 5.2999999999999999e-02 7.1865834320986597e+00 4.3325333826337644e+00 3.3359816880531756e+00 0 1 0
4433 492 1 5.2999999999999999e-02 -2.6418688196900977e+00 7.7349961760104291e+00 3.9414362335061508e+00 1 0 0
612 68 1 5.2999999999999999e-02 2.9080096062252405e+00 1.0103239408728664e+01 3.8804102112624039e+00 0 1 1
470 53 4 -1.0600000000000000e-01 7.3369100565632301e+00 1.1465184122498828e+01 5.4439308176864358e+00 0 1 1
7862 872 1 5.2999999999999999e-02 1.5872936627524325e+01 5.5231839334464725e+00 2.4604783987882146e+00 0 0 1
4427 491 2 -1.5900000000000000e-01 -3.8992777155970870e-01 6.6239126393174184e+00 4.2029461625131219e+00 1 0 0
611 68 1 5.2999999999999999e-02 2.1253198495661412e+00 1.0579918312141324e+01 5.3794115846669044e+00 0 1 1
4430 491 1 5.2999999999999999e-02 -2.7042143029346466e-01 7.5763618639943706e+00 3.6824106274323896e+00 1 0 0
4431 492 4 -1.0600000000000000e-01 -2.8082942292147957e+00 6.9101510659070726e+00 4.7211375256349051e+00 1 0 0
4422 491 4 -1.0600000000000000e-01 -1.0747636299586807e+00 7.5329393098412805e+00 6.6657127359772979e+00 1 0 0
3611 401 3 -5.2999999999999999e-02 1.4603509567457955e+01 1.4516831800823837e+00 8.0050291189646678e+00 0 1 0
7863 872 1 5.2999999999999999e-02 1.7552302685006467e+01 5.7640123075124663e+00 4.1791973912586204e+00 0 0 1
427 48 1 5.2999999999999999e-02 2.3383306387608656e+00 6.7901940141917505e+00 2.5366278130133928e+00 0 1 1
475 53 2 -1.5900000000000000e-01 9.8790391660478907e+00 1.1505909759417515e+01 4.7674194589445769e+00 0 1 1
2350 261 1 5.2999999999999999e-02 1.5017033670680693e+01 1.1746721874034234e+01 4.4371354451449099e+00 0 0 0
478 53 1 5.2999999999999999e-02 1.0073657888565466e+01 1.1698497548355249e+01 3.7582292598559870e+00 0 1 1
397 44 1 5.2999999999999999e-02 -9.2951482867730784e-01 2.1131995426141925e+00 7.2630021072207711e+00 0 1 1
461 52 4 -1.0600000000000000e-01 6.4261877168591184e+00 1.1449095144179758e+01 3.0634957735154487e+00 0 1 1
4435 492 1 5.2999999999999999e-02 -3.0561375089647198e+00 5.4031463482581152e+00 3.1817460564821238e+00 1 0 0
4443 493 1 5.2999999999999999e-02 -3.3055805685550728e+00 4.5318529527111764e+00 5.6231814694709108e+00 1 0 0
4425 491 1 5.2999999999999999e-02 -1.4068761401155794e+00 8.5262065614981672e+00 6.4116851166200322e+00 1 0 0
593 66 1 5.2999999999999999e-02 3.6255194467478162e+00 1.1847464968576203e+01 7.0864494090837775e+00 0 1 1
4423 491 3 -5.2999999999999999e-02 -1.3473172926090780e+00 6.6302577711735191e+00 5.3243178509285940e+00 1 0 0
410 46 1 5.2999999999999999e-02 2.1757991989664802e+00 1.5929257114678141e+00 4.3529773312719708e+00 0 1 1
1948 216 1 5.2999999999999999e-02 3.2818909874878752e+00 6.4591176290574994e+00 7.5327947154392660e+00 0 0 0
4428 491 1 5.2999999999999999e-02 -5.8736727749152307e-01 5.8821196199103110e+00 3.4744889696626684e+00 1 0 0
616 69 1 5.2999999999999999e-02 2.2677746910341368e-01 9.8086947203615065e+00 2.5183575341497959e+00 0 1 1
413 46 1 5.2999999999999999e-02 4.8267437986318189e+00 1.8770591915348784e+00 3.1977926539415358e+00 0 1 1
4417 490 1 5.2999999999999999e-02 -2.9515100205312725e+00 6.7986403390113379e+00 7.6045977322928149e+00 1 0 0
416 47 4 -1.0600000000000000e-01 2.9646745883067593e+00 4.1116145328254952e+00 3.8432046450303341e+00 0 1 1
418 47 1 5.2999999999999999e-02 3.4506696393282699e+00 3.6536549673575149e+00 4.6980628761908303e+00 0 1 1
420 47 1 5.2999999999999999e-02 4.7319403116058325e+00 4.8809872723031251e+00 2.8672207456845196e+00 0 1 1
3618 401 1 5.2999999999999999e-02 1.5984261402872281e+01 3.0762519623907982e+00 7.9389433676027741e+00 0 1 0
1952 217 1 5.2999999999999999e-02 4.6736937164938261e+00 4.2061293201226961e+00 7.7160810677487675e+00 0 0 0
3647 405 3 -5.2999999999999999e-02 8.8591441545452874e+00 2.8271313121017281e+00 3.3052347131183639e+00 0 1 0
614 69 4 -1.0600000000000000e-01 6.8872222150325513e-01 1.0809840163841482e+01 2.3106702074949972e+00 0 1 1
7865 872 1 5.2999999999999999e-02 1.7369583767760155e+01 2.8792353303878109e+00 4.8998883677784928e+00 0 0 1
4420 490 1 5.2999999999999999e-02 -1.1906029315917168e+00 4.9625146405369671e+00 7.4876669541682643e+00 1 0 0
424 47 1 5.2999999999999999e-02 4.8513346676106650e+00 6.9942079568455533e+00 4.1392747984855562e+00 0 1 1
417 47 3 -5.2999999999999999e-02 3.7857397960311134e+00 5.2723199931780265e+00 3.2644187324894354e+00 0 1 1
423 47 1 5.2999999999999999e-02 3.2334100026542014e+00 6.6136016141866083e+00 4.8982774531911275e+00 0 1 1
1962 218 1 5.2999999999999999e-02 6.5116657766688295e+00 2.5815932264567203e+00 7.7694505922626265e+00 0 0 0
465 52 1 5.2999999999999999e-02 7.9574540246046421e+00 1.0048284764523492e+01 3.9489140505309388e+00 0 1 1
467 52 1 5.2999999999999999e-02 5.0922545303211297e+00 1.0318339768855163e+01 5.0796310716419750e+00 0 1 1
421 47 2 -1.5900000000000000e-01 4.1061988609223512e+00 6.2190370485102875e+00 4.4619743863710788e+00 0 1 1
466 52 2 -1.5900000000000000e-01 5.8698211632059820e+00 9.5950668104592971e+00 4.6762398559173768e+00 0 1 1
3649 405 1 5.2999999999999999e-02 8.2672618797996886e+00 3.2757745046199456e+00 5.3387152231561075e+00 0 1 0
468 52 1 5.2999999999999999e-02 6.0683846721579453e+00 8.8272511136585052e+00 5.5215157833801740e+00 0 1 1
3646 405 4 -1.0600000000000000e-01 9.1896070439061770e+00 3.3983636257494783e+00 4.7106129804771353e+00 0 1 0
3648 405 1 5.2999999999999999e-02 9.3933177839873849e+00 4.4860550022213008e+00 4.6800373296487354e+00 0 1 0
462 52 3 -5.2999999999999999e-02 7.0040829126430761e+00 1.0531394924588257e+01 4.2380686139776840e+00 0 1 1
3640 404 1 5.2999999999999999e-02 9.3805167602040029e+00 3.5289012338807733e+00 7.4868889480276177e+00 0 1 0
422 47 1 5.2999999999999999e-02 4.6685610458697866e+00 5.6640975364152295e+00 5.2212026114806394e+00 0 1 1
469 52 1 5.2999999999999999e-02 5.4307155921329375e+00 9.0352441238083543e+00 3.7649335666003934e+00 0 1 1
472 53 1 5.2999999999999999e-02 7.3411318606909663e+00 1.0826353154938360e+01 6.3710537715313773e+00 0 1 1
3641 404 1 5.2999999999999999e-02 9.8795630128196734e+00 1.7835267533795158e+00 5.9600105942467518e+00 0 1 0
3638 404 3 -5.2999999999999999e-02 1.0237839474391398e+01 2.7509236312515242e+00 5.5745396016740685e+00 0 1 0
3637 404 4 -1.0600000000000000e-01 1.0285772814363341e+01 3.5875462762834585e+00 6.8652482238804566e+00 0 1 0
3639 404 1 5.2999999999999999e-02 1.0470061250644306e+01 4.6373780375935372e+00 6.6979796221363621e+00 0 1 0
4414 490 3 -5.2999999999999999e-02 -1.8523764565652630e+00 7.0106204435480688e+00 7.8593865630419097e+00 1 0 0
7898 876 1 5.2999999999999999e-02 9.9088259366144076e+00 1.0328175131747393e+01 7.6864622596990708e+00 0 0 1
7897 876 1 5.2999999999999999e-02 9.7295088966942664e+00 8.8600536578302460e+00 6.6828712555871101e+00 0 0 1
7895 876 4 -1.0600000000000000e-01 1.0375617104260941e+01 9.3687822814183193e+00 7.3954249849997176e+00 0 0 1
619 69 2 -1.5900000000000000e-01 -1.6466634951673771e+00 1.1789791359016000e+01 2.2283161394385482e+00 0 1 1
606 68 3 -5.2999999999999999e-02 1.0527945355394808e+00 1.1300533269001482e+01 3.6798990421559341e+00 0 1 1
7861 872 1 5.2999999999999999e-02 1.5612765272425968e+01 3.9493941246447091e+00 2.7510753851006013e+00 0 0 1
412 46 2 -1.5900000000000000e-01 4.2509675077229323e+00 2.3081710429540325e+00 2.3654021545691881e+00 0 1 1
7892 875 1 5.2999999999999999e-02 1.3500778869671542e+01 1.1326657467329241e+01 6.8906226097719232e+00 0 0 1
7889 875 1 5.2999999999999999e-02 1.2991744727428419e+01 8.2904058478709999e+00 7.6705380153067635e+00 0 0 1
2326 258 1 5.2999999999999999e-02 1.5843651769629286e+01 1.1068058718036639e+01 6.4109491323484749e+00 0 0 0
7872 873 1 5.2999999999999999e-02 1.4396988177117613e+01 6.2178742140984040e+00 3.8347016765804218e+00 0 0 1
7881 874 1 5.2999999999999999e-02 1.1568742486391512e+01 7.0063127631938089e+00 6.2570375982247457e+00 0 0 1
7888 875 1 5.2999999999999999e-02 1.3770875023188115e+01 9.1465639094335600e+00 6.4255311451077084e+00 0 0 1
7879 874 1 5.2999999999999999e-02 1.4006222947703854e+01 6.1710712550763205e+00 6.8561873386582208e+00 0 0 1
7880 874 1 5.2999999999999999e-02 1.3081881496954342e+01 5.3471873722973609e+00 5.7703012452826030e+00 0 0 1
2327 258 1 5.2999999999999999e-02 1.6743449575299458e+01 1.1466884579635328e+01 8.0320975336792007e+00 0 0 0
2353 261 1 5.2999999999999999e-02 1.4374863988914903e+01 1.0342631322778438e+01 2.6259360044274662e+00 0 0 0
3643 404 1 5.2999999999999999e-02 1.1663291078298952e+01 2.2406385851113004e+00 3.9730752700039984e+00 0 1 0
2351 261 2 -1.5900000000000000e-01 1.3726880041763199e+01 1.1213839489626395e+01 2.9298026393089129e+00 0 0 0
3642 404 2 -1.5900000000000000e-01 1.1610542199386046e+01 2.6042635497005282e+00 5.0213044464935432e+00 0 1 0
3614 401 1 5.2999999999999999e-02 1.4040487695009855e+01 1.7806313613853539e+00 7.1389928706552839e+00 0 1 0
2352 261 1 5.2999999999999999e-02 1.2959287362443845e+01 1.0865421173255758e+01 3.6087800965165577e+00 0 0 0
7868 873 4 -1.0600000000000000e-01 1.5766415205938614e+01 5.2202085573877710e+00 5.3015440449705764e+00 0 0 1
2325 258 1 5.2999999999999999e-02 1.6601989817425256e+01 9.6870819967808455e+00 7.4103213323132788e+00 0 0 0
7870 873 1 5.2999999999999999e-02 1.6260498456681859e+01 5.2646682994222882e+00 6.3011071336180384e+00 0 0 1
3644 404 1 5.2999999999999999e-02 1.2133948939924144e+01 1.9194636591022451e+00 5.6949615245857679e+00 0 1 0
7859 872 4 -1.0600000000000000e-01 1.6369260055992722e+01 4.6543042502244578e+00 2.8144242165231748e+00 0 0 1
3645 404 1 5.2999999999999999e-02 1.2225890859549448e+01 3.5681003308560095e+00 4.9059082298662817e+00 0 1 0
3629 403 3 -5.2999999999999999e-02 1.1406168102686619e+01 3.2013663296669028e+00 7.9432343290682814e+00 0 1 0
3650 405 1 5.2999999999999999e-02 9.7745232168688627e+00 2.8378411316464480e+00 2.6504713970384612e+00 0 1 0
7886 875 4 -1.0600000000000000e-01 1.2757818182983510e+01 8.6744206786112699e+00 6.6943718185268200e+00 0 0 1
7860 872 3 -5.2999999999999999e-02 1.6873341849236599e+01 4.9320353757224380e+00 4.2733132825498634e+00 0 0 1
2332 259 1 5.2999999999999999e-02 1.6668219721701700e+01 1.0167341240384035e+01 4.0488619073518146e+00 0 0 0
7873 873 2 -1.5900000000000000e-01 1.5628311976456100e+01 7.6953891575589681e+00 4.8109105068464881e+00 0 0 1
7874 873 1 5.2999999999999999e-02 1.4982421440564266e+01 8.6167885432740103e+00 4.8087740040219602e+00 0 0 1
2324 258 2 -1.5900000000000000e-01 1.6692264885361578e+01 1.0783190972085551e+01 7.0713617793561863e+00 0 0 0
3632 403 1 5.2999999999999999e-02 1.2390729667084349e+01 3.0502422115461680e+00 7.4977447010813787e+00 0 1 0
7875 873 1 5.2999999999999999e-02 1.6275078629895813e+01 7.6145666680225252e+00 3.8736287684653838e+00 0 0 1
7891 875 2 -1.5900000000000000e-01 1.2553441214620200e+01 1.1008207401379996e+01 7.4578728239920666e+00 0 0 1
7869 873 3 -5.2999999999999999e-02 1.4788408210341494e+01 6.3475065584904966e+00 4.8827388540115919e+00 0 0 1
7890 875 1 5.2999999999999999e-02 1.1704418554276769e+01 9.9847785244138425e+00 5.6903051937452993e+00 0 0 1
7878 874 3 -5.2999999999999999e-02 1.2508082571173079e+01 7.4260417961702139e+00 5.8192725764876165e+00 0 0 1
7877 874 4 -1.0600000000000000e-01 1.3605447242901509e+01 6.3194704341727599e+00 5.8759543534570877e+00 0 0 1
7884 874 1 5.2999999999999999e-02 1.0989770975626200e+01 8.2568783495629567e+00 4.3092067098665874e+00 0 0 1
7883 874 1 5.2999999999999999e-02 1.2649621555963989e+01 8.5510590302623086e+00 3.8501485667906126e+00 0 0 1
7887 875 3 -5.2999999999999999e-02 1.1773482268740779e+01 9.8012882423044516e+00 6.7656555906566362e+00 0 0 1
7882 874 2 -1.5900000000000000e-01 1.2063612763327493e+01 7.8121319500585917e+00 4.3475342976647013e+00 0 0 1
7885 874 1 5.2999999999999999e-02 1.1986096053996738e+01 6.8655938013398901e+00 3.6379968981091153e+00 0 0 1
7876 873 1 5.2999999999999999e-02 1.6292927439671065e+01 7.8294375153599765e+00 5.6846080995811885e+00 0 0 1
3651 405 2 -1.5900000000000000e-01 7.8275689378165065e+00 3.7869950936149439e+00 2.6523843934667726e+00 0 1 0
7871 873 1 5.2999999999999999e-02 1.5145463288083423e+01 4.3459809481437741e+00 5.4177373595292124e+00 0 0 1
609 68 1 5.2999999999999999e-02 1.0190960194336762e-01 1.1467832283175817e+01 4.3248293354423346e+00 0 1 1
463 52 1 5.2999999999999999e-02 5.4074879571899661e+00 1.1687154617847117e+01 3.3701031615295021e+00 0 1 1
477 53 1 5.2999999999999999e-02 1.0817546729758098e+01 1.1824161548175374e+01 5.2438283085479336e+00 0 1 1
1947 216 1 5.2999999999999999e-02 2.1622587434006206e+00 5.1550679679903277e+00 8.0547184421838374e+00 0 0 0
7902 876 1 5.2999999999999999e-02 8.3419970386782918e+00 8.1533164207654032e+00 7.9568616714544431e+00 0 0 1
1925 214 1 5.2999999999999999e-02 1.9292420207281307e+00 9.3661387563916989e+00 1.2208010660640047e+01 0 0 0
6218 690 3 -5.2999999999999999e-02 -1.8634675806041667e+00 4.0726557669756005e+00 1.2455075471535462e+01 1 1 1
6222 690 2 -1.5900000000000000e-01 -1.2581866999505618e+00 5.5126826815371190e+00 1.2318392471699228e+01 1 1 1
1923 214 4 -1.0600000000000000e-01 2.9792004159649101e+00 9.8801248842680156e+00 1.2183070016330403e+01 0 0 0
6221 690 1 5.2999999999999999e-02 -1.2620952033941912e+00 3.3303578499395448e+00 1.1999420279594752e+01 1 1 1
1933 215 3 -5.2999999999999999e-02 3.1820248757323499e+00 6.5861233627079985e+00 1.1662554242098020e+01 0 0 0
1936 215 1 5.2999999999999999e-02 2.1954585558847315e+00 7.0609546201475810e+00 1.1385068715124639e+01 0 0 0
1937 215 2 -1.5900000000000000e-01 2.8643149471447984e+00 6.0579439648905966e+00 1.3100576424785826e+01 0 0 0
1940 215 1 5.2999999999999999e-02 2.0521269248684808e+00 5.3132823735543138e+00 1.3016305383125685e+01 0 0 0
1915 213 3 -5.2999999999999999e-02 2.9599888852674754e+00 1.0749538333125120e+01 1.0845505051022137e+01 0 0 0
1938 215 1 5.2999999999999999e-02 2.3303072614283638e+00 6.7506134840647194e+00 1.3719726322554607e+01 0 0 0
1943 216 1 5.2999999999999999e-02 2.6232522312188582e+00 4.5817695244076813e+00 1.0949196489638576e+01 0 0 0
1922 213 1 5.2999999999999999e-02 1.6868662684625857e+00 9.2549515429022566e+00 9.8558732546023222e+00 0 0 0
1919 213 2 -1.5900000000000000e-01 2.5563376622058254e+00 9.9377524660567484e+00 9.6557598121241899e+00 0 0 0
4391 487 2 -1.5900000000000000e-01 -6.1765412258117003e-01 9.9878099955336825e+00 1.3561147952400029e+01 1 0 0
1941 216 4 -1.0600000000000000e-01 3.4674136929050885e+00 5.2769965971161970e+00 1.0866788613567918e+01 0 0 0
6231 691 2 -1.5900000000000000e-01 -3.2798479401577141e+00 2.2226412009640968e+00 1.0054157015884190e+01 1 1 1
6225 690 1 5.2999999999999999e-02 -5.5151893601928315e-01 5.9050396444610254e+00 1.3057253812188030e+01 1 1 1
4394 487 1 5.2999999999999999e-02 -4.4493255551895450e-01 9.2484956501057471e+00 1.2780487380204233e+01 1 0 0
6217 690 4 -1.0600000000000000e-01 -2.0217270187412346e+00 3.6848280875254997e+00 1.3875645736785801e+01 1 1 1
6212 689 1 5.2999999999999999e-02 6.7927445557593558e-02 4.2261584400973256e+00 1.4166000153122686e+01 1 1 1
6220 690 1 5.2999999999999999e-02 -2.5641344577625502e+00 2.7683321947594322e+00 1.3864522635114277e+01 1 1 1
1926 214 1 5.2999999999999999e-02 2.8550259587155447e+00 1.0563825825126733e+01 1.3057405861965437e+01 0 0 0
4413 490 4 -1.0600000000000000e-01 -1.9533630657567851e+00 8.0024678731449761e+00 9.0753752679738753e+00 1 0 0
4387 487 3 -5.2999999999999999e-02 -2.0895404562681268e+00 1.0503380698037102e+01 1.3437297390886375e+01 1 0 0
4416 490 1 5.2999999999999999e-02 -9.3848704011801898e-01 8.2783909591561162e+00 9.4925778981506426e+00 1 0 0
7899 876 1 5.2999999999999999e-02 1.0858126148499114e+01 7.5261161027148642e+00 8.6364886557410436e+00 0 0 1
6224 690 1 5.2999999999999999e-02 -8.2813682167430436e-01 5.7367997929877363e+00 1.1332008361877731e+01 1 1 1
1939 215 1 5.2999999999999999e-02 3.6668802738659005e+00 5.6842271648285854e+00 1.3734446743915534e+01 0 0 0
1927 214 1 5.2999999999999999e-02 3.8330900784895814e+00 8.4160715531552306e+00 1.3501131471416082e+01 0 0 0
4399 488 1 5.2999999999999999e-02 -7.3535124934622642e-01 1.0423706663168590e+01 1.0777117913024602e+01 1 0 0
4556 505 1 5.2999999999999999e-02 1.6700826278083223e+01 4.7083122692463375e+00 9.7502047175756790e+00 0 0 0
6234 691 1 5.2999999999999999e-02 -2.2270976102535185e+00 1.9955714615711775e+00 1.0254431010553906e+01 1 1 1
1959 218 4 -1.0600000000000000e-01 6.3407527846769494e+00 2.3039856076479586e+00 8.8331674245891527e+00 0 0 0
7929 879 1 5.2999999999999999e-02 9.0024445967748576e+00 2.9046424203330430e+00 1.4148497806768024e+01 0 0 1
1917 213 1 5.2999999999999999e-02 9.3656740170822861e-01 1.1581873096267365e+01 1.1193821869671678e+01 0 0 0
3633 403 2 -1.5900000000000000e-01 1.1538761211072428e+01 4.4294599304569759e+00 8.9062295968298439e+00 0 1 0
4396 488 3 -5.2999999999999999e-02 -1.7064224155286545e+00 1.0859865249791911e+01 1.0761900058753081e+01 1 0 0
1946 216 2 -1.5900000000000000e-01 2.8546344392402370e+00 5.9380063939728345e+00 8.3990849799947700e+00 0 0 0
4578 508 1 5.2999999999999999e-02 1.7589575508030741e+01 1.1094321030048949e+01 1.2934709117353542e+01 0 0 0
8120 900 1 5.2999999999999999e-02 8.0967519946773159e+00 1.0409595176845151e+01 1.3822757025074228e+01 0 0 1
3628 403 4 -1.0600000000000000e-01 1.1273200879403523e+01 1.8118084293117513e+00 8.6496147830782757e+00 0 1 0
4390 487 1 5.2999999999999999e-02 -2.7001501397117336e+00 9.5852769671912821e+00 1.3289867286687555e+01 1 0 0
3620 402 3 -5.2999999999999999e-02 1.2457446582235592e+01 1.4438288012991936e+00 9.5835217227667222e+00 0 1 0
4552 505 1 5.2999999999999999e-02 1.6956016920220250e+01 6.1548074409784430e+00 1.1391288584964510e+01 0 0 0
1955 217 2 -1.5900000000000000e-01 6.8601931133215626e+00 4.4514515494699491e+00 9.6628080756259926e+00 0 0 0
1920 213 1 5.2999999999999999e-02 3.3240484312430709e+00 9.1512006901854335e+00 9.3705261688880910e+00 0 0 0
6223 690 1 5.2999999999999999e-02 -2.1447169195450337e+00 6.1939649963916015e+00 1.2370579701735380e+01 1 1 1
6196 687 1 5.2999999999999999e-02 4.2776425404817013e+00 3.4137745959627601e+00 1.3221648809896335e+01 1 1 1
1924 214 3 -5.2999999999999999e-02 4.1050185242017081e+00 8.8696136664472611e+00 1.2487844587066585e+01 0 0 0
1932 215 4 -1.0600000000000000e-01 4.3107298186440568e+00 7.6215564687051636e+00 1.1596067469922447e+01 0 0 0
1944 216 1 5.2999999999999999e-02 4.3527123272317612e+00 4.9202088303311999e+00 1.1321197201238549e+01 0 0 0
1918 213 1 5.2999999999999999e-02 4.0115644436055629e+00 1.1085303908087722e+01 1.0734950079506872e+01 0 0 0
1931 214 1 5.2999999999999999e-02 5.2950815661211763e+00 1.0574109210292201e+01 1.2994811169438057e+01 0 0 0
1950 217 4 -1.0600000000000000e-01 4.4511825191979142e+00 4.0232474721760969e+00 8.7884104325302577e+00 0 0 0
1951 217 3 -5.2999999999999999e-02 5.6952517641078177e+00 3.4863084189165727e+00 9.5055505094675574e+00 0 0 0
7931 880 4 -1.0600000000000000e-01 7.7237594382847448e+00 5.3295274332600124e+00 1.3680898438230223e+01 0 0 1
7923 879 3 -5.2999999999999999e-02 9.2443705143329158e+00 5.0176470291108970e+00 1.3528022819313845e+01 0 0 1
1930 214 1 5.2999999999999999e-02 6.1611233430697254e+00 8.8803086814952223e+00 1.3064636351995182e+01 0 0 0
1928 214 2 -1.5900000000000000e-01 5.4412958480987452e+00 9.5512131024124720e+00 1.2542347737153371e+01 0 0 0
1934 215 1 5.2999999999999999e-02 5.2095054117561350e+00 7.0509157718686017e+00 1.2032935123301570e+01 0 0 0
7927 879 2 -1.5900000000000000e-01 9.3975870998231450e+00 3.4788072341414331e+00 1.3318724026194712e+01 0 0 1
1935 215 1 5.2999999999999999e-02 4.4734223874511354e+00 7.9449646785228518e+00 1.0539216844914961e+01 0 0 0
1929 214 1 5.2999999999999999e-02 5.7973216943677173e+00 9.7085750049347279e+00 1.1543026096993346e+01 0 0 0
7925 879 1 5.2999999999999999e-02 9.0751722067138338e+00 6.7060248920788830e+00 1.2136357755557745e+01 0 0 1
7922 879 4 -1.0600000000000000e-01 9.8046304890874065e+00 5.9346933472874870e+00 1.2403528176131022e+01 0 0 1
1954 217 1 5.2999999999999999e-02 5.3216223937160780e+00 3.1361758952005698e+00 1.0515899523497623e+01 0 0 0
7934 880 1 5.2999999999999999e-02 7.4378171373956068e+00 5.6910806746318290e+00 1.2701481649864215e+01 0 0 1
7924 879 1 5.2999999999999999e-02 9.9138131404933372e+00 5.2926867788342467e+00 1.1496781784225364e+01 0 0 1
7928 879 1 5.2999999999999999e-02 8.8418488415719683e+00 3.2033668021149073e+00 1.2396165292893267e+01 0 0 1
7908 877 1 5.2999999999999999e-02 9.7034532234181174e+00 8.5043553901978228e+00 1.1318800449244289e+01 0 0 1
7930 879 1 5.2999999999999999e-02 1.0435963854112805e+01 3.1427734474793292e+00 1.3214815817454737e+01 0 0 1
7938 880 1 5.2999999999999999e-02 8.3436050113187026e+00 7.9650771648212864e+00 1.3594040346758735e+01 0 0 1
1953 217 1 5.2999999999999999e-02 3.7349040432630209e+00 3.2179071417128311e+00 8.8701131358958385e+00 0 0 0
7901 876 1 5.2999999999999999e-02 8.7237799219543035e+00 7.2646573787315019e+00 9.3941802467448170e+00 0 0 1
3630 403 1 5.2999999999999999e-02 1.0298660605034961e+01 1.5853375012256936e+00 9.1560623131655063e+00 0 1 0
4408 489 1 5.2999999999999999e-02 -2.0163455085116126e+00 9.9751855758431898e+00 8.2034220238792201e+00 1 0 0
1945 216 1 5.2999999999999999e-02 4.7145722125214302e+00 6.1360478140602828e+00 9.1965356563904148e+00 0 0 0
4404 489 4 -1.0600000000000000e-01 -2.7913786597516714e+00 9.9428625664267578e+00 1.0261709201354606e+01 1 0 0
1957 217 1 5.2999999999999999e-02 6.7610169578455324e+00 5.1873758363240725e+00 1.0471401355769633e+01 0 0 0
7896 876 3 -5.2999999999999999e-02 1.0386046059759632e+01 8.5284693566665908e+00 8.7479464317709628e+00 0 0 1
1961 218 1 5.2999999999999999e-02 7.2859951258988893e+00 2.0414430800206844e+00 9.3006298803491756e+00 0 0 0
7906 877 1 5.2999999999999999e-02 1.0764066661053414e+01 1.0377147268041126e+01 9.9487533916257895e+00 0 0 1
4418 490 2 -1.5900000000000000e-01 -1.2326763047402971e+00 5.7148463810074048e+00 8.3217492937958060e+00 1 0 0
6226 691 4 -1.0600000000000000e-01 -3.2265712577557939e+00 4.0322306472024385e+00 1.1687074432903289e+01 1 1 1
4415 490 1 5.2999999999999999e-02 -2.3920599758045018e+00 7.4422256804794955e+00 9.8481195355254183e+00 1 0 0
1942 216 3 -5.2999999999999999e-02 3.9068023726037771e+00 5.3900972656190227e+00 9.3671846843070217e+00 0 0 0
1949 216 1 5.2999999999999999e-02 2.2959865759295921e+00 6.7274847537422815e+00 8.8476883190911551e+00 0 0 0
4405 489 3 -5.2999999999999999e-02 -2.6886057544351272e+00 9.3282884864999680e+00 8.8727026633861854e+00 1 0 0
4564 506 1 5.2999999999999999e-02 1.6527534113057200e+01 9.3383383592328713e+00 1.3861065059427371e+01 0 0 0
4395 488 4 -1.0600000000000000e-01 -2.0063268227018565e+00 1.1475290030849846e+01 1.2164855326035951e+01 1 0 0
7909 877 2 -1.5900000000000000e-01 1.1159864474751132e+01 9.8351073795046879e+00 1.2309978884627228e+01 0 0 1
8115 900 1 5.2999999999999999e-02 9.3276703435095047e+00 1.1699782274043651e+01 1.3771513707826390e+01 0 0 1
3549 394 1 5.2999999999999999e-02 1.6395555963472319e+01 2.1161955844971381e+00 1.2847968761717508e+01 0 1 0
4407 489 1 5.2999999999999999e-02 -2.8385312729188330e+00 9.0589028956412392e+00 1.0984791979811009e+01 1 0 0
3546 393 1 5.2999999999999999e-02 1.4791277711806430e+01 4.5164726976643390e+00 1.3426490172888576e+01 0 1 0
7903 876 1 5.2999999999999999e-02 8.1968822604997751e+00 8.9323168898591021e+00 9.4719166161864123e+00 0 0 1
7915 878 1 5.2999999999999999e-02 1.2643728188640145e+01 7.8210945444050672e+00 1.1673278702320619e+01 0 0 1
7917 878 1 5.2999999999999999e-02 1.1142397287515207e+01 7.2133494366724502e+00 1.3636854517504011e+01 0 0 1
7914 878 3 -5.2999999999999999e-02 1.1167870357666011e+01 6.5632787420730505e+00 1.2732820305758835e+01 0 0 1
3635 403 1 5.2999999999999999e-02 1.1880078364285966e+01 5.3346647556683848e+00 8.4241464134262714e+00 0 1 0
1956 217 1 5.2999999999999999e-02 7.6895068204301769e+00 3.7883184443277376e+00 9.9456103505738334e+00 0 0 0
3544 393 1 5.2999999999999999e-02 1.6345972055571099e+01 5.2527507986734250e+00 1.3616096650277965e+01 0 1 0
4567 507 3 -5.2999999999999999e-02 1.5598925715848022e+01 1.1489452870138393e+01 1.2461212013241015e+01 0 0 0
4566 507 4 -1.0600000000000000e-01 1.5688773968526895e+01 1.0377289877834947e+01 1.1407129317929401e+01 0 0 0
6201 688 1 5.2999999999999999e-02 2.3440392312796332e+00 2.1665711586662200e+00 1.3231140733416998e+01 1 1 1
6211 689 1 5.2999999999999999e-02 -1.5370955653815521e-01 1.9044927870555657e+00 1.3181911066184698e+01 1 1 1
3547 394 4 -1.0600000000000000e-01 1.6792506582262643e+01 2.3521231549820922e+00 1.3892298018226610e+01 0 1 0
4563 506 1 5.2999999999999999e-02 1.5389290824104073e+01 8.0236965248977548e+00 1.3240110227024106e+01 0 0 0
7919 878 1 5.2999999999999999e-02 1.2815345056661485e+01 5.1146105622677585e+00 1.2094080920618184e+01 0 0 1
7904 877 4 -1.0600000000000000e-01 1.1103776025879480e+01 9.2647156973289668e+00 9.8771743942974108e+00 0 0 1
4557 506 4 -1.0600000000000000e-01 1.6092730485164147e+01 7.9996776916302021e+00 1.0714464519298415e+01 0 0 0
4558 506 3 -5.2999999999999999e-02 1.6486626217095786e+01 9.0304206326745646e+00 1.1716699762342390e+01 0 0 0
7916 878 1 5.2999999999999999e-02 1.1598035342717882e+01 6.7897165484935673e+00 1.0630723293680932e+01 0 0 1
7913 878 4 -1.0600000000000000e-01 1.1626213881961466e+01 7.4796972073520855e+00 1.1523299453656135e+01 0 0 1
6232 691 1 5.2999999999999999e-02 -3.2513657446772015e+00 3.1250295189060480e+00 9.3923174314058038e+00 1 1 1
3617 401 1 5.2999999999999999e-02 1.4485087983535450e+01 3.3620212171161157e+00 8.9285590823988876e+00 0 1 0
7920 878 1 5.2999999999999999e-02 1.2266574226886277e+01 4.8512239937546706e+00 1.3793896737738230e+01 0 0 1
3615 401 2 -1.5900000000000000e-01 1.5277935177444988e+01 2.6831364700931939e+00 8.6395059350183381e+00 0 1 0
3636 403 1 5.2999999999999999e-02 1.2128539318458250e+01 4.2953988629467741e+00 9.7798500414552301e+00 0 1 0
3623 402 1 5.2999999999999999e-02 1.2738645690303279e+01 2.3486981125376349e+00 1.0108773516708309e+01 0 1 0
4559 506 1 5.2999999999999999e-02 1.5013440815007975e+01 7.6902564414756291e+00 1.0893989879223501e+01 0 0 0
3634 403 1 5.2999999999999999e-02 1.0518046620254861e+01 4.6656157929692306e+00 9.3542891800935255e+00 0 1 0
4555 505 1 5.2999999999999999e-02 1.5061734140712723e+01 5.6970648744311738e+00 9.8695721063677855e+00 0 0 0
7907 877 1 5.2999999999999999e-02 1.2236612592978986e+01 9.2349503785726661e+00 9.7284214290382991e+00 0 0 1
6228 691 1 5.2999999999999999e-02 -3.0195645240268401e+00 4.6022905100105138e+00 1.0733220260637124e+01 1 1 1
4570 507 1 5.2999999999999999e-02 1.5427824240605322e+01 1.1107516652681726e+01 1.3445740839684371e+01 0 0 0
7918 878 2 -1.5900000000000000e-01 1.2413980250588816e+01 5.6589011410136090e+00 1.3062717634555531e+01 0 0 1
7921 878 1 5.2999999999999999e-02 1.3194472835547877e+01 6.2916942777222031e+00 1.3397737690804417e+01 0 0 1
7905 877 3 -5.2999999999999999e-02 1.0805955676128837e+01 8.7055788853669647e+00 1.1260947521450980e+01 0 0 1
7912 877 1 5.2999999999999999e-02 1.0789367697272938e+01 9.5154502336357591e+00 1.3311562118581644e+01 0 0 1
7910 877 1 5.2999999999999999e-02 1.0746459445854764e+01 1.0833274861524771e+01 1.2066858724943923e+01 0 0 1
4553 505 2 -1.5900000000000000e-01 1.6170298874103207e+01 5.7043991449153211e+00 9.5996940367945847e+00 0 0 0
4549 505 3 -5.2999999999999999e-02 1.6905742731448072e+01 6.7362302594162875e+00 1.0451578217246315e+01 0 0 0
7911 877 1 5.2999999999999999e-02 1.2225576972015737e+01 9.9589472791554989e+00 1.2386448256894047e+01 0 0 1
4560 506 1 5.2999999999999999e-02 1.6101841998016752e+01 8.5549331149130641e+00 9.7447027958525396e+00 0 0 0
4568 507 1 5.2999999999999999e-02 1.4735458775029908e+01 1.0096550923173947e+01 1.0939407776272587e+01 0 0 0
4569 507 1 5.2999999999999999e-02 1.6250477458564735e+01 1.0805835500257993e+01 1.0515546916398021e+01 0 0 0
3543 393 2 -1.5900000000000000e-01 1.5546356619105484e+01 4.7233236768914439e+00 1.4168147781972454e+01 0 1 0
4562 506 2 -1.5900000000000000e-01 1.6373761435044749e+01 8.5081765962346374e+00 1.3158830074100957e+01 0 0 0