LAMMPS data file generated by ipp-crystal-generator

108 atoms
4 atom types
108 bonds
2 bond types
216 angles
3 angle types
324 dihedrals
3 dihedral types

0.00 6.63 xlo xhi
0.00 20.78 ylo yhi
0.00 6.41 zlo zhi
0.00 -1.07 0.00 xy xz yz

Masses

1 12.0112
2 12.0112
3 12.0112
4 1.00797

Atoms # full

1 1 3 -0.1590 -0.6970 4.7607 1.2847
2 1 1 -0.0530 -0.8063 3.3082 1.7873
3 1 2 -0.1060 -1.2238 3.3290 3.2683
4 1 3 -0.1590 -2.5768 1.2239 3.1676
5 1 1 -0.0530 -1.4096 1.9284 3.8831
6 1 2 -0.1060 -1.5963 1.7746 5.4031
7 1 3 -0.1590 0.8464 1.6562 5.9365
8 1 1 -0.0530 -0.4657 2.4022 6.2378
9 1 2 -0.1060 -0.6188 2.5372 7.7629
10 2 3 -0.1590 -1.2334 -4.7607 4.4902
11 2 1 -0.0530 -1.3427 -3.3082 4.9928
12 2 2 -0.1060 -1.7602 -3.3290 6.4737
13 2 3 -0.1590 -3.1132 -1.2239 6.3730
14 2 1 -0.0530 -1.9460 -1.9284 7.0885
15 2 2 -0.1060 -2.1327 -1.7746 8.6085
16 2 3 -0.1590 0.3100 -1.6562 9.1419
17 2 1 -0.0530 -1.0021 -2.4022 9.4432
18 2 2 -0.1060 -1.1552 -2.5372 10.9683
19 3 3 -0.1590 -4.5484 5.6293 4.4902
20 3 1 -0.0530 -4.6577 7.0818 4.9928
21 3 2 -0.1060 -5.0752 7.0610 6.4737
22 3 3 -0.1590 -6.4282 9.1661 6.3730
23 3 1 -0.0530 -5.2610 8.4616 7.0885
24 3 2 -0.1060 -5.4477 8.6154 8.6085
25 3 3 -0.1590 -3.0050 8.7338 9.1419
26 3 1 -0.0530 -4.3171 7.9878 9.4432
27 3 2 -0.1060 -4.4702 7.8528 10.9683
28 4 3 -0.1590 -4.0120 -5.6293 1.2847
29 4 1 -0.0530 -4.1213 -7.0818 1.7873
30 4 2 -0.1060 -4.5388 -7.0610 3.2683
31 4 3 -0.1590 -5.8918 -9.1661 3.1676
32 4 1 -0.0530 -4.7246 -8.4616 3.8831
33 4 2 -0.1060 -4.9113 -8.6154 5.4031
34 4 3 -0.1590 -2.4686 -8.7338 5.9365
35 4 1 -0.0530 -3.7807 -7.9878 6.2378
36 4 2 -0.1060 -3.9338 -7.8528 7.7629
37 1 4 0.0530 -1.6960 5.1133 0.9886
38 1 4 0.0530 -0.3015 5.3911 2.0948
39 1 4 0.0530 -0.0173 4.7904 0.4204
40 1 4 0.0530 -1.6460 2.8569 1.2385
41 1 4 0.0530 -0.4655 3.8767 3.8469
42 1 4 0.0530 -2.1637 3.8917 3.3678
43 1 4 0.0530 -3.3497 1.9681 2.9252
44 1 4 0.0530 -2.2020 0.7580 2.2443
45 1 4 0.0530 -2.9931 0.4542 3.8340
46 1 4 0.0530 -0.5043 1.3588 3.6263
47 1 4 0.0530 -2.5531 2.2326 5.6945
48 1 4 0.0530 -1.6711 0.7049 5.6483
49 1 4 0.0530 0.6253 0.5892 5.7857
50 1 4 0.0530 1.2973 2.0781 5.0261
51 1 4 0.0530 1.5325 1.7805 6.7872
52 1 4 0.0530 -0.3320 3.4237 5.8523
53 1 4 0.0530 0.2691 3.0442 8.1685
54 1 4 0.0530 -0.6407 1.5329 8.2110
55 2 4 0.0530 -0.8379 -5.3911 5.3002
56 2 4 0.0530 -2.2324 -5.1133 4.1940
57 2 4 0.0530 -0.5537 -4.7904 3.6258
58 2 4 0.0530 -2.1824 -2.8569 4.4440
59 2 4 0.0530 -2.7001 -3.8917 6.5733
60 2 4 0.0530 -1.0019 -3.8767 7.0523
61 2 4 0.0530 -2.7384 -0.7580 5.4498
62 2 4 0.0530 -3.8861 -1.9681 6.1306
63 2 4 0.0530 -3.5295 -0.4542 7.0395
64 2 4 0.0530 -1.0407 -1.3588 6.8317
65 2 4 0.0530 -2.2075 -0.7049 8.8537
66 2 4 0.0530 -3.0895 -2.2326 8.8999
67 2 4 0.0530 0.7609 -2.0781 8.2316
68 2 4 0.0530 0.0889 -0.5892 8.9911
69 2 4 0.0530 0.9961 -1.7805 9.9926
70 2 4 0.0530 -0.8684 -3.4237 9.0577
71 2 4 0.0530 -1.1771 -1.5329 11.4164
72 2 4 0.0530 -0.2673 -3.0442 11.3739
73 3 4 0.0530 -4.1529 4.9989 5.3002
74 3 4 0.0530 -5.5474 5.2767 4.1940
75 3 4 0.0530 -3.8687 5.5996 3.6258
76 3 4 0.0530 -5.4974 7.5331 4.4440
77 3 4 0.0530 -6.0151 6.4983 6.5733
78 3 4 0.0530 -4.3169 6.5133 7.0523
79 3 4 0.0530 -6.0534 9.6320 5.4498
80 3 4 0.0530 -7.2011 8.4219 6.1306
81 3 4 0.0530 -6.8445 9.9358 7.0395
82 3 4 0.0530 -4.3557 9.0312 6.8317
83 3 4 0.0530 -5.5225 9.6851 8.8537
84 3 4 0.0530 -6.4045 8.1574 8.8999
85 3 4 0.0530 -2.5541 8.3119 8.2316
86 3 4 0.0530 -3.2261 9.8008 8.9911
87 3 4 0.0530 -2.3189 8.6095 9.9926
88 3 4 0.0530 -4.1834 6.9663 9.0577
89 3 4 0.0530 -4.4921 8.8571 11.4164
90 3 4 0.0530 -3.5823 7.3458 11.3739
91 4 4 0.0530 -5.0110 -5.2767 0.9886
92 4 4 0.0530 -3.6165 -4.9989 2.0948
93 4 4 0.0530 -3.3323 -5.5996 0.4204
94 4 4 0.0530 -4.9610 -7.5331 1.2385
95 4 4 0.0530 -3.7805 -6.5133 3.8469
96 4 4 0.0530 -5.4787 -6.4983 3.3678
97 4 4 0.0530 -6.6647 -8.4219 2.9252
98 4 4 0.0530 -5.5170 -9.6320 2.2443
99 4 4 0.0530 -6.3081 -9.9358 3.8340
100 4 4 0.0530 -3.8193 -9.0312 3.6263
101 4 4 0.0530 -5.8681 -8.1574 5.6945
102 4 4 0.0530 -4.9861 -9.6851 5.6483
103 4 4 0.0530 -2.6897 -9.8008 5.7857
104 4 4 0.0530 -2.0177 -8.3119 5.0261
105 4 4 0.0530 -1.7825 -8.6095 6.7872
106 4 4 0.0530 -3.6470 -6.9663 5.8523
107 4 4 0.0530 -3.0459 -7.3458 8.1685
108 4 4 0.0530 -3.9557 -8.8571 8.2110

Bonds

1 1 1 2
2 1 2 3
3 1 2 9
4 1 3 5
5 1 4 5
6 1 5 6
7 1 6 8
8 1 7 8
9 1 8 9
10 1 10 11
11 1 11 12
12 1 11 18
13 1 12 14
14 1 13 14
15 1 14 15
16 1 15 17
17 1 16 17
18 1 17 18
19 1 19 20
20 1 20 21
21 1 20 27
22 1 21 23
23 1 22 23
24 1 23 24
25 1 24 26
26 1 25 26
27 1 26 27
28 1 28 29
29 1 29 30
30 1 29 36
31 1 30 32
32 1 31 32
33 1 32 33
34 1 33 35
35 1 34 35
36 1 35 36
37 2 1 39
38 2 1 38
39 2 1 37
40 2 2 40
41 2 3 42
42 2 3 41
43 2 4 45
44 2 4 44
45 2 4 43
46 2 5 46
47 2 6 48
48 2 6 47
49 2 7 51
50 2 7 50
51 2 7 49
52 2 8 52
53 2 9 54
54 2 9 53
55 2 10 57
56 2 10 56
57 2 10 55
58 2 11 58
59 2 12 60
60 2 12 59
61 2 13 63
62 2 13 62
63 2 13 61
64 2 14 64
65 2 15 66
66 2 15 65
67 2 16 69
68 2 16 68
69 2 16 67
70 2 17 70
71 2 18 72
72 2 18 71
73 2 19 75
74 2 19 74
75 2 19 73
76 2 20 76
77 2 21 78
78 2 21 77
79 2 22 81
80 2 22 80
81 2 22 79
82 2 23 82
83 2 24 84
84 2 24 83
85 2 25 87
86 2 25 86
87 2 25 85
88 2 26 88
89 2 27 90
90 2 27 89
91 2 28 93
92 2 28 92
93 2 28 91
94 2 29 94
95 2 30 96
96 2 30 95
97 2 31 99
98 2 31 98
99 2 31 97
100 2 32 100
101 2 33 102
102 2 33 101
103 2 34 105
104 2 34 104
105 2 34 103
106 2 35 106
107 2 36 108
108 2 36 107

Angles

1 1 2 1 37
2 1 2 1 38
3 1 2 1 39
4 2 37 1 38
5 2 37 1 39
6 2 38 1 39
7 3 1 2 3
8 3 1 2 9
9 1 1 2 40
10 3 3 2 9
11 1 3 2 40
12 1 9 2 40
13 3 2 3 5
14 1 2 3 41
15 1 2 3 42
16 1 5 3 41
17 1 5 3 42
18 2 41 3 42
19 1 5 4 43
20 1 5 4 44
21 1 5 4 45
22 2 43 4 44
23 2 43 4 45
24 2 44 4 45
25 3 3 5 4
26 3 3 5 6
27 1 3 5 46
28 3 4 5 6
29 1 4 5 46
30 1 6 5 46
31 3 5 6 8
32 1 5 6 47
33 1 5 6 48
34 1 8 6 47
35 1 8 6 48
36 2 47 6 48
37 1 8 7 49
38 1 8 7 50
39 1 8 7 51
40 2 49 7 50
41 2 49 7 51
42 2 50 7 51
43 3 6 8 7
44 3 6 8 9
45 1 6 8 52
46 3 7 8 9
47 1 7 8 52
48 1 9 8 52
49 3 2 9 8
50 1 2 9 53
51 1 2 9 54
52 1 8 9 53
53 1 8 9 54
54 2 53 9 54
55 1 11 10 55
56 1 11 10 56
57 1 11 10 57
58 2 55 10 56
59 2 55 10 57
60 2 56 10 57
61 3 10 11 12
62 3 10 11 18
63 1 10 11 58
64 3 12 11 18
65 1 12 11 58
66 1 18 11 58
67 3 11 12 14
68 1 11 12 59
69 1 11 12 60
70 1 14 12 59
71 1 14 12 60
72 2 59 12 60
73 1 14 13 61
74 1 14 13 62
75 1 14 13 63
76 2 61 13 62
77 2 61 13 63
78 2 62 13 63
79 3 12 14 13
80 3 12 14 15
81 1 12 14 64
82 3 13 14 15
83 1 13 14 64
84 1 15 14 64
85 3 14 15 17
86 1 14 15 65
87 1 14 15 66
88 1 17 15 65
89 1 17 15 66
90 2 65 15 66
91 1 17 16 67
92 1 17 16 68
93 1 17 16 69
94 2 67 16 68
95 2 67 16 69
96 2 68 16 69
97 3 15 17 16
98 3 15 17 18
99 1 15 17 70
100 3 16 17 18
101 1 16 17 70
102 1 18 17 70
103 3 11 18 17
104 1 11 18 71
105 1 11 18 72
106 1 17 18 71
107 1 17 18 72
108 2 71 18 72
109 1 20 19 73
110 1 20 19 74
111 1 20 19 75
112 2 73 19 74
113 2 73 19 75
114 2 74 19 75
115 3 19 20 21
116 3 19 20 27
117 1 19 20 76
118 3 21 20 27
119 1 21 20 76
120 1 27 20 76
121 3 20 21 23
122 1 20 21 77
123 1 20 21 78
124 1 23 21 77
125 1 23 21 78
126 2 77 21 78
127 1 23 22 79
128 1 23 22 80
129 1 23 22 81
130 2 79 22 80
131 2 79 22 81
132 2 80 22 81
133 3 21 23 22
134 3 21 23 24
135 1 21 23 82
136 3 22 23 24
137 1 22 23 82
138 1 24 23 82
139 3 23 24 26
140 1 23 24 83
141 1 23 24 84
142 1 26 24 83
143 1 26 24 84
144 2 83 24 84
145 1 26 25 85
146 1 26 25 86
147 1 26 25 87
148 2 85 25 86
149 2 85 25 87
150 2 86 25 87
151 3 24 26 25
152 3 24 26 27
153 1 24 26 88
154 3 25 26 27
155 1 25 26 88
156 1 27 26 88
157 3 20 27 26
158 1 20 27 89
159 1 20 27 90
160 1 26 27 89
161 1 26 27 90
162 2 89 27 90
163 1 29 28 91
164 1 29 28 92
165 1 29 28 93
166 2 91 28 92
167 2 91 28 93
168 2 92 28 93
169 3 28 29 30
170 3 28 29 36
171 1 28 29 94
172 3 30 29 36
173 1 30 29 94
174 1 36 29 94
175 3 29 30 32
176 1 29 30 95
177 1 29 30 96
178 1 32 30 95
179 1 32 30 96
180 2 95 30 96
181 1 32 31 97
182 1 32 31 98
183 1 32 31 99
184 2 97 31 98
185 2 97 31 99
186 2 98 31 99
187 3 30 32 31
188 3 30 32 33
189 1 30 32 100
190 3 31 32 33
191 1 31 32 100
192 1 33 32 100
193 3 32 33 35
194 1 32 33 101
195 1 32 33 102
196 1 35 33 101
197 1 35 33 102
198 2 101 33 102
199 1 35 34 103
200 1 35 34 104
201 1 35 34 105
202 2 103 34 104
203 2 103 34 105
204 2 104 34 105
205 3 33 35 34
206 3 33 35 36
207 1 33 35 106
208 3 34 35 36
209 1 34 35 106
210 1 36 35 106
211 3 29 36 35
212 1 29 36 107
213 1 29 36 108
214 1 35 36 107
215 1 35 36 108
216 2 107 36 108

Dihedrals

1 1 3 2 1 39
2 1 9 2 1 39
3 2 39 1 2 40
4 1 3 2 1 38
5 1 9 2 1 38
6 2 38 1 2 40
7 1 3 2 1 37
8 1 9 2 1 37
9 2 37 1 2 40
10 3 1 2 3 5
11 1 1 2 3 42
12 1 1 2 3 41
13 3 9 2 3 5
14 1 9 2 3 42
15 1 9 2 3 41
16 1 5 3 2 40
17 2 40 2 3 42
18 2 40 2 3 41
19 3 1 2 9 8
20 1 1 2 9 54
21 1 1 2 9 53
22 3 3 2 9 8
23 1 3 2 9 54
24 1 3 2 9 53
25 1 8 9 2 40
26 2 40 2 9 54
27 2 40 2 9 53
28 3 2 3 5 4
29 3 2 3 5 6
30 1 2 3 5 46
31 1 4 5 3 42
32 1 6 5 3 42
33 2 42 3 5 46
34 1 4 5 3 41
35 1 6 5 3 41
36 2 41 3 5 46
37 1 3 5 4 45
38 1 6 5 4 45
39 2 45 4 5 46
40 1 3 5 4 44
41 1 6 5 4 44
42 2 44 4 5 46
43 1 3 5 4 43
44 1 6 5 4 43
45 2 43 4 5 46
46 3 3 5 6 8
47 1 3 5 6 48
48 1 3 5 6 47
49 3 4 5 6 8
50 1 4 5 6 48
51 1 4 5 6 47
52 1 8 6 5 46
53 2 46 5 6 48
54 2 46 5 6 47
55 3 5 6 8 7
56 3 5 6 8 9
57 1 5 6 8 52
58 1 7 8 6 48
59 1 9 8 6 48
60 2 48 6 8 52
61 1 7 8 6 47
62 1 9 8 6 47
63 2 47 6 8 52
64 1 6 8 7 51
65 1 9 8 7 51
66 2 51 7 8 52
67 1 6 8 7 50
68 1 9 8 7 50
69 2 50 7 8 52
70 1 6 8 7 49
71 1 9 8 7 49
72 2 49 7 8 52
73 3 6 8 9 2
74 1 6 8 9 54
75 1 6 8 9 53
76 3 7 8 9 2
77 1 7 8 9 54
78 1 7 8 9 53
79 1 2 9 8 52
80 2 52 8 9 54
81 2 52 8 9 53
82 1 12 11 10 57
83 1 18 11 10 57
84 2 57 10 11 58
85 1 12 11 10 56
86 1 18 11 10 56
87 2 56 10 11 58
88 1 12 11 10 55
89 1 18 11 10 55
90 2 55 10 11 58
91 3 10 11 12 14
92 1 10 11 12 60
93 1 10 11 12 59
94 3 18 11 12 14
95 1 18 11 12 60
96 1 18 11 12 59
97 1 14 12 11 58
98 2 58 11 12 60
99 2 58 11 12 59
100 3 10 11 18 17
101 1 10 11 18 72
102 1 10 11 18 71
103 3 12 11 18 17
104 1 12 11 18 72
105 1 12 11 18 71
106 1 17 18 11 58
107 2 58 11 18 72
108 2 58 11 18 71
109 3 11 12 14 13
110 3 11 12 14 15
111 1 11 12 14 64
112 1 13 14 12 60
113 1 15 14 12 60
114 2 60 12 14 64
115 1 13 14 12 59
116 1 15 14 12 59
117 2 59 12 14 64
118 1 12 14 13 63
119 1 15 14 13 63
120 2 63 13 14 64
121 1 12 14 13 62
122 1 15 14 13 62
123 2 62 13 14 64
124 1 12 14 13 61
125 1 15 14 13 61
126 2 61 13 14 64
127 3 12 14 15 17
128 1 12 14 15 66
129 1 12 14 15 65
130 3 13 14 15 17
131 1 13 14 15 66
132 1 13 14 15 65
133 1 17 15 14 64
134 2 64 14 15 66
135 2 64 14 15 65
136 3 14 15 17 16
137 3 14 15 17 18
138 1 14 15 17 70
139 1 16 17 15 66
140 1 18 17 15 66
141 2 66 15 17 70
142 1 16 17 15 65
143 1 18 17 15 65
144 2 65 15 17 70
145 1 15 17 16 69
146 1 18 17 16 69
147 2 69 16 17 70
148 1 15 17 16 68
149 1 18 17 16 68
150 2 68 16 17 70
151 1 15 17 16 67
152 1 18 17 16 67
153 2 67 16 17 70
154 3 15 17 18 11
155 1 15 17 18 72
156 1 15 17 18 71
157 3 16 17 18 11
158 1 16 17 18 72
159 1 16 17 18 71
160 1 11 18 17 70
161 2 70 17 18 72
162 2 70 17 18 71
163 1 21 20 19 75
164 1 27 20 19 75
165 2 75 19 20 76
166 1 21 20 19 74
167 1 27 20 19 74
168 2 74 19 20 76
169 1 21 20 19 73
170 1 27 20 19 73
171 2 73 19 20 76
172 3 19 20 21 23
173 1 19 20 21 78
174 1 19 20 21 77
175 3 27 20 21 23
176 1 27 20 21 78
177 1 27 20 21 77
178 1 23 21 20 76
179 2 76 20 21 78
180 2 76 20 21 77
181 3 19 20 27 26
182 1 19 20 27 90
183 1 19 20 27 89
184 3 21 20 27 26
185 1 21 20 27 90
186 1 21 20 27 89
187 1 26 27 20 76
188 2 76 20 27 90
189 2 76 20 27 89
190 3 20 21 23 22
191 3 20 21 23 24
192 1 20 21 23 82
193 1 22 23 21 78
194 1 24 23 21 78
195 2 78 21 23 82
196 1 22 23 21 77
197 1 24 23 21 77
198 2 77 21 23 82
199 1 21 23 22 81
200 1 24 23 22 81
201 2 81 22 23 82
202 1 21 23 22 80
203 1 24 23 22 80
204 2 80 22 23 82
205 1 21 23 22 79
206 1 24 23 22 79
207 2 79 22 23 82
208 3 21 23 24 26
209 1 21 23 24 84
210 1 21 23 24 83
211 3 22 23 24 26
212 1 22 23 24 84
213 1 22 23 24 83
214 1 26 24 23 82
215 2 82 23 24 84
216 2 82 23 24 83
217 3 23 24 26 25
218 3 23 24 26 27
219 1 23 24 26 88
220 1 25 26 24 84
221 1 27 26 24 84
222 2 84 24 26 88
223 1 25 26 24 83
224 1 27 26 24 83
225 2 83 24 26 88
226 1 24 26 25 87
227 1 27 26 25 87
228 2 87 25 26 88
229 1 24 26 25 86
230 1 27 26 25 86
231 2 86 25 26 88
232 1 24 26 25 85
233 1 27 26 25 85
234 2 85 25 26 88
235 3 24 26 27 20
236 1 24 26 27 90
237 1 24 26 27 89
238 3 25 26 27 20
239 1 25 26 27 90
240 1 25 26 27 89
241 1 20 27 26 88
242 2 88 26 27 90
243 2 88 26 27 89
244 1 30 29 28 93
245 1 36 29 28 93
246 2 93 28 29 94
247 1 30 29 28 92
248 1 36 29 28 92
249 2 92 28 29 94
250 1 30 29 28 91
251 1 36 29 28 91
252 2 91 28 29 94
253 3 28 29 30 32
254 1 28 29 30 96
255 1 28 29 30 95
256 3 36 29 30 32
257 1 36 29 30 96
258 1 36 29 30 95
259 1 32 30 29 94
260 2 94 29 30 96
261 2 94 29 30 95
262 3 28 29 36 35
263 1 28 29 36 108
264 1 28 29 36 107
265 3 30 29 36 35
266 1 30 29 36 108
267 1 30 29 36 107
268 1 35 36 29 94
269 2 94 29 36 108
270 2 94 29 36 107
271 3 29 30 32 31
272 3 29 30 32 33
273 1 29 30 32 100
274 1 31 32 30 96
275 1 33 32 30 96
276 2 96 30 32 100
277 1 31 32 30 95
278 1 33 32 30 95
279 2 95 30 32 100
280 1 30 32 31 99
281 1 33 32 31 99
282 2 99 31 32 100
283 1 30 32 31 98
284 1 33 32 31 98
285 2 98 31 32 100
286 1 30 32 31 97
287 1 33 32 31 97
288 2 97 31 32 100
289 3 30 32 33 35
290 1 30 32 33 102
291 1 30 32 33 101
292 3 31 32 33 35
293 1 31 32 33 102
294 1 31 32 33 101
295 1 35 33 32 100
296 2 100 32 33 102
297 2 100 32 33 101
298 3 32 33 35 34
299 3 32 33 35 36
300 1 32 33 35 106
301 1 34 35 33 102
302 1 36 35 33 102
303 2 102 33 35 106
304 1 34 35 33 101
305 1 36 35 33 101
306 2 101 33 35 106
307 1 33 35 34 105
308 1 36 35 34 105
309 2 105 34 35 106
310 1 33 35 34 104
311 1 36 35 34 104
312 2 104 34 35 106
313 1 33 35 34 103
314 1 36 35 34 103
315 2 103 34 35 106
316 3 33 35 36 29
317 1 33 35 36 108
318 1 33 35 36 107
319 3 34 35 36 29
320 1 34 35 36 108
321 1 34 35 36 107
322 1 29 36 35 106
323 2 106 35 36 108
324 2 106 35 36 107
