LAMMPS data file generated by ipp-crystal-generator

5400 atoms
4 atom types
5400 bonds
2 bond types
10800 angles
3 angle types
16200 dihedrals
3 dihedral types

0.00 33.15 xlo xhi
0.00 41.56 ylo yhi
0.00 32.05 zlo zhi
0.00 -5.36 0.00 xy xz yz

Masses

1 12.0112
2 12.0112
3 12.0112
4 1.00797

Atoms # full

1 1 3 0.0000 -0.6970 4.7607 1.2847
2 1 1 0.0000 -0.8063 3.3082 1.7873
3 1 2 0.0000 -1.2238 3.3290 3.2683
4 1 3 0.0000 -2.5768 1.2239 3.1676
5 1 1 0.0000 -1.4096 1.9284 3.8831
6 1 2 0.0000 -1.5963 1.7746 5.4031
7 1 3 0.0000 0.8464 1.6562 5.9365
8 1 1 0.0000 -0.4657 2.4022 6.2378
9 1 2 0.0000 -0.6188 2.5372 7.7629
10 1 3 0.0000 -1.7698 4.7607 7.6956
11 1 1 0.0000 -1.8791 3.3082 8.1982
12 1 2 0.0000 -2.2967 3.3290 9.6791
13 1 3 0.0000 -3.6496 1.2239 9.5785
14 1 1 0.0000 -2.4824 1.9284 10.2939
15 1 2 0.0000 -2.6691 1.7746 11.8139
16 1 3 0.0000 -0.2264 1.6562 12.3473
17 1 1 0.0000 -1.5385 2.4022 12.6486
18 1 2 0.0000 -1.6916 2.5372 14.1738
19 1 3 0.0000 -2.8426 4.7607 14.1064
20 1 1 0.0000 -2.9519 3.3082 14.6091
21 1 2 0.0000 -3.3695 3.3290 16.0900
22 1 3 0.0000 -4.7224 1.2239 15.9893
23 1 1 0.0000 -3.5552 1.9284 16.7048
24 1 2 0.0000 -3.7420 1.7746 18.2248
25 1 3 0.0000 -1.2992 1.6562 18.7582
26 1 1 0.0000 -2.6113 2.4022 19.0595
27 1 2 0.0000 -2.7644 2.5372 20.5846
28 1 3 0.0000 -3.9154 4.7607 20.5173
29 1 1 0.0000 -4.0247 3.3082 21.0199
30 1 2 0.0000 -4.4423 3.3290 22.5008
31 1 3 0.0000 -5.7952 1.2239 22.4002
32 1 1 0.0000 -4.6280 1.9284 23.1156
33 1 2 0.0000 -4.8148 1.7746 24.6356
34 1 3 0.0000 -2.3720 1.6562 25.1690
35 1 1 0.0000 -3.6841 2.4022 25.4703
36 1 2 0.0000 -3.8373 2.5372 26.9955
37 1 3 0.0000 -4.9882 4.7607 26.9282
38 1 1 0.0000 -5.0975 3.3082 27.4308
39 1 2 0.0000 -5.5151 3.3290 28.9117
40 1 3 0.0000 -6.8680 1.2239 28.8110
41 1 1 0.0000 -5.7008 1.9284 29.5265
42 1 2 0.0000 -5.8876 1.7746 31.0465
43 1 3 0.0000 -3.4448 1.6562 31.5799
44 1 1 0.0000 -4.7569 2.4022 31.8812
45 1 2 0.0000 -4.9101 2.5372 33.4063
46 2 3 0.0000 -1.2334 -4.7607 4.4902
47 2 1 0.0000 -1.3427 -3.3082 4.9928
48 2 2 0.0000 -1.7602 -3.3290 6.4737
49 2 3 0.0000 -3.1132 -1.2239 6.3730
50 2 1 0.0000 -1.9460 -1.9284 7.0885
51 2 2 0.0000 -2.1327 -1.7746 8.6085
52 2 3 0.0000 0.3100 -1.6562 9.1419
53 2 1 0.0000 -1.0021 -2.4022 9.4432
54 2 2 0.0000 -1.1552 -2.5372 10.9683
55 2 3 0.0000 -2.3062 -4.7607 10.9010
56 2 1 0.0000 -2.4155 -3.3082 11.4036
57 2 2 0.0000 -2.8331 -3.3290 12.8845
58 2 3 0.0000 -4.1860 -1.2239 12.7839
59 2 1 0.0000 -3.0188 -1.9284 13.4993
60 2 2 0.0000 -3.2055 -1.7746 15.0194
61 2 3 0.0000 -0.7628 -1.6562 15.5527
62 2 1 0.0000 -2.0749 -2.4022 15.8540
63 2 2 0.0000 -2.2280 -2.5372 17.3792
64 2 3 0.0000 -3.3790 -4.7607 17.3119
65 2 1 0.0000 -3.4883 -3.3082 17.8145
66 2 2 0.0000 -3.9059 -3.3290 19.2954
67 2 3 0.0000 -5.2588 -1.2239 19.1947
68 2 1 0.0000 -4.0916 -1.9284 19.9102
69 2 2 0.0000 -4.2784 -1.7746 21.4302
70 2 3 0.0000 -1.8356 -1.6562 21.9636
71 2 1 0.0000 -3.1477 -2.4022 22.2649
72 2 2 0.0000 -3.3009 -2.5372 23.7900
73 2 3 0.0000 -4.4518 -4.7607 23.7227
74 2 1 0.0000 -4.5611 -3.3082 24.2253
75 2 2 0.0000 -4.9787 -3.3290 25.7063
76 2 3 0.0000 -6.3316 -1.2239 25.6056
77 2 1 0.0000 -5.1644 -1.9284 26.3211
78 2 2 0.0000 -5.3512 -1.7746 27.8411
79 2 3 0.0000 -2.9084 -1.6562 28.3745
80 2 1 0.0000 -4.2205 -2.4022 28.6758
81 2 2 0.0000 -4.3737 -2.5372 30.2009
82 2 3 0.0000 -5.5246 -4.7607 30.1336
83 2 1 0.0000 -5.6339 -3.3082 30.6362
84 2 2 0.0000 -6.0515 -3.3290 32.1171
85 2 3 0.0000 -7.4044 -1.2239 32.0165
86 2 1 0.0000 -6.2372 -1.9284 32.7319
87 2 2 0.0000 -6.4240 -1.7746 34.2519
88 2 3 0.0000 -3.9812 -1.6562 34.7853
89 2 1 0.0000 -5.2934 -2.4022 35.0866
90 2 2 0.0000 -5.4465 -2.5372 36.6118
91 3 3 0.0000 -4.5484 5.6293 4.4902
92 3 1 0.0000 -4.6577 7.0818 4.9928
93 3 2 0.0000 -5.0752 7.0610 6.4737
94 3 3 0.0000 -6.4282 9.1661 6.3730
95 3 1 0.0000 -5.2610 8.4616 7.0885
96 3 2 0.0000 -5.4477 8.6154 8.6085
97 3 3 0.0000 -3.0050 8.7338 9.1419
98 3 1 0.0000 -4.3171 7.9878 9.4432
99 3 2 0.0000 -4.4702 7.8528 10.9683
100 3 3 0.0000 -5.6212 5.6293 10.9010
101 3 1 0.0000 -5.7305 7.0818 11.4036
102 3 2 0.0000 -6.1481 7.0610 12.8845
103 3 3 0.0000 -7.5010 9.1661 12.7839
104 3 1 0.0000 -6.3338 8.4616 13.4993
105 3 2 0.0000 -6.5205 8.6154 15.0194
106 3 3 0.0000 -4.0778 8.7338 15.5527
107 3 1 0.0000 -5.3899 7.9878 15.8540
108 3 2 0.0000 -5.5430 7.8528 17.3792
109 3 3 0.0000 -6.6940 5.6293 17.3119
110 3 1 0.0000 -6.8033 7.0818 17.8145
111 3 2 0.0000 -7.2209 7.0610 19.2954
112 3 3 0.0000 -8.5738 9.1661 19.1947
113 3 1 0.0000 -7.4066 8.4616 19.9102
114 3 2 0.0000 -7.5934 8.6154 21.4302
115 3 3 0.0000 -5.1506 8.7338 21.9636
116 3 1 0.0000 -6.4627 7.9878 22.2649
117 3 2 0.0000 -6.6159 7.8528 23.7900
118 3 3 0.0000 -7.7668 5.6293 23.7227
119 3 1 0.0000 -7.8761 7.0818 24.2253
120 3 2 0.0000 -8.2937 7.0610 25.7063
121 3 3 0.0000 -9.6466 9.1661 25.6056
122 3 1 0.0000 -8.4794 8.4616 26.3211
123 3 2 0.0000 -8.6662 8.6154 27.8411
124 3 3 0.0000 -6.2234 8.7338 28.3745
125 3 1 0.0000 -7.5355 7.9878 28.6758
126 3 2 0.0000 -7.6887 7.8528 30.2009
127 3 3 0.0000 -8.8396 5.6293 30.1336
128 3 1 0.0000 -8.9489 7.0818 30.6362
129 3 2 0.0000 -9.3665 7.0610 32.1171
130 3 3 0.0000 -10.7194 9.1661 32.0165
131 3 1 0.0000 -9.5522 8.4616 32.7319
132 3 2 0.0000 -9.7390 8.6154 34.2519
133 3 3 0.0000 -7.2962 8.7338 34.7853
134 3 1 0.0000 -8.6084 7.9878 35.0866
135 3 2 0.0000 -8.7615 7.8528 36.6118
136 4 3 0.0000 -4.0120 -5.6293 1.2847
137 4 1 0.0000 -4.1213 -7.0818 1.7873
138 4 2 0.0000 -4.5388 -7.0610 3.2683
139 4 3 0.0000 -5.8918 -9.1661 3.1676
140 4 1 0.0000 -4.7246 -8.4616 3.8831
141 4 2 0.0000 -4.9113 -8.6154 5.4031
142 4 3 0.0000 -2.4686 -8.7338 5.9365
143 4 1 0.0000 -3.7807 -7.9878 6.2378
144 4 2 0.0000 -3.9338 -7.8528 7.7629
145 4 3 0.0000 -5.0848 -5.6293 7.6956
146 4 1 0.0000 -5.1941 -7.0818 8.1982
147 4 2 0.0000 -5.6117 -7.0610 9.6791
148 4 3 0.0000 -6.9646 -9.1661 9.5785
149 4 1 0.0000 -5.7974 -8.4616 10.2939
150 4 2 0.0000 -5.9841 -8.6154 11.8139
151 4 3 0.0000 -3.5414 -8.7338 12.3473
152 4 1 0.0000 -4.8535 -7.9878 12.6486
153 4 2 0.0000 -5.0066 -7.8528 14.1738
154 4 3 0.0000 -6.1576 -5.6293 14.1064
155 4 1 0.0000 -6.2669 -7.0818 14.6091
156 4 2 0.0000 -6.6845 -7.0610 16.0900
157 4 3 0.0000 -8.0374 -9.1661 15.9893
158 4 1 0.0000 -6.8702 -8.4616 16.7048
159 4 2 0.0000 -7.0570 -8.6154 18.2248
160 4 3 0.0000 -4.6142 -8.7338 18.7582
161 4 1 0.0000 -5.9263 -7.9878 19.0595
162 4 2 0.0000 -6.0794 -7.8528 20.5846
163 4 3 0.0000 -7.2304 -5.6293 20.5173
164 4 1 0.0000 -7.3397 -7.0818 21.0199
165 4 2 0.0000 -7.7573 -7.0610 22.5008
166 4 3 0.0000 -9.1102 -9.1661 22.4002
167 4 1 0.0000 -7.9430 -8.4616 23.1156
168 4 2 0.0000 -8.1298 -8.6154 24.6356
169 4 3 0.0000 -5.6870 -8.7338 25.1690
170 4 1 0.0000 -6.9991 -7.9878 25.4703
171 4 2 0.0000 -7.1523 -7.8528 26.9955
172 4 3 0.0000 -8.3032 -5.6293 26.9282
173 4 1 0.0000 -8.4125 -7.0818 27.4308
174 4 2 0.0000 -8.8301 -7.0610 28.9117
175 4 3 0.0000 -10.1830 -9.1661 28.8110
176 4 1 0.0000 -9.0158 -8.4616 29.5265
177 4 2 0.0000 -9.2026 -8.6154 31.0465
178 4 3 0.0000 -6.7598 -8.7338 31.5799
179 4 1 0.0000 -8.0719 -7.9878 31.8812
180 4 2 0.0000 -8.2251 -7.8528 33.4063
181 5 3 0.0000 -0.6970 25.5407 1.2847
182 5 1 0.0000 -0.8063 24.0882 1.7873
183 5 2 0.0000 -1.2238 24.1090 3.2683
184 5 3 0.0000 -2.5768 22.0039 3.1676
185 5 1 0.0000 -1.4096 22.7084 3.8831
186 5 2 0.0000 -1.5963 22.5546 5.4031
187 5 3 0.0000 0.8464 22.4362 5.9365
188 5 1 0.0000 -0.4657 23.1822 6.2378
189 5 2 0.0000 -0.6188 23.3172 7.7629
190 5 3 0.0000 -1.7698 25.5407 7.6956
191 5 1 0.0000 -1.8791 24.0882 8.1982
192 5 2 0.0000 -2.2967 24.1090 9.6791
193 5 3 0.0000 -3.6496 22.0039 9.5785
194 5 1 0.0000 -2.4824 22.7084 10.2939
195 5 2 0.0000 -2.6691 22.5546 11.8139
196 5 3 0.0000 -0.2264 22.4362 12.3473
197 5 1 0.0000 -1.5385 23.1822 12.6486
198 5 2 0.0000 -1.6916 23.3172 14.1738
199 5 3 0.0000 -2.8426 25.5407 14.1064
200 5 1 0.0000 -2.9519 24.0882 14.6091
201 5 2 0.0000 -3.3695 24.1090 16.0900
202 5 3 0.0000 -4.7224 22.0039 15.9893
203 5 1 0.0000 -3.5552 22.7084 16.7048
204 5 2 0.0000 -3.7420 22.5546 18.2248
205 5 3 0.0000 -1.2992 22.4362 18.7582
206 5 1 0.0000 -2.6113 23.1822 19.0595
207 5 2 0.0000 -2.7644 23.3172 20.5846
208 5 3 0.0000 -3.9154 25.5407 20.5173
209 5 1 0.0000 -4.0247 24.0882 21.0199
210 5 2 0.0000 -4.4423 24.1090 22.5008
211 5 3 0.0000 -5.7952 22.0039 22.4002
212 5 1 0.0000 -4.6280 22.7084 23.1156
213 5 2 0.0000 -4.8148 22.5546 24.6356
214 5 3 0.0000 -2.3720 22.4362 25.1690
215 5 1 0.0000 -3.6841 23.1822 25.4703
216 5 2 0.0000 -3.8373 23.3172 26.9955
217 5 3 0.0000 -4.9882 25.5407 26.9282
218 5 1 0.0000 -5.0975 24.0882 27.4308
219 5 2 0.0000 -5.5151 24.1090 28.9117
220 5 3 0.0000 -6.8680 22.0039 28.8110
221 5 1 0.0000 -5.7008 22.7084 29.5265
222 5 2 0.0000 -5.8876 22.5546 31.0465
223 5 3 0.0000 -3.4448 22.4362 31.5799
224 5 1 0.0000 -4.7569 23.1822 31.8812
225 5 2 0.0000 -4.9101 23.3172 33.4063
226 6 3 0.0000 -1.2334 16.0193 4.4902
227 6 1 0.0000 -1.3427 17.4718 4.9928
228 6 2 0.0000 -1.7602 17.4510 6.4737
229 6 3 0.0000 -3.1132 19.5561 6.3730
230 6 1 0.0000 -1.9460 18.8516 7.0885
231 6 2 0.0000 -2.1327 19.0054 8.6085
232 6 3 0.0000 0.3100 19.1238 9.1419
233 6 1 0.0000 -1.0021 18.3778 9.4432
234 6 2 0.0000 -1.1552 18.2428 10.9683
235 6 3 0.0000 -2.3062 16.0193 10.9010
236 6 1 0.0000 -2.4155 17.4718 11.4036
237 6 2 0.0000 -2.8331 17.4510 12.8845
238 6 3 0.0000 -4.1860 19.5561 12.7839
239 6 1 0.0000 -3.0188 18.8516 13.4993
240 6 2 0.0000 -3.2055 19.0054 15.0194
241 6 3 0.0000 -0.7628 19.1238 15.5527
242 6 1 0.0000 -2.0749 18.3778 15.8540
243 6 2 0.0000 -2.2280 18.2428 17.3792
244 6 3 0.0000 -3.3790 16.0193 17.3119
245 6 1 0.0000 -3.4883 17.4718 17.8145
246 6 2 0.0000 -3.9059 17.4510 19.2954
247 6 3 0.0000 -5.2588 19.5561 19.1947
248 6 1 0.0000 -4.0916 18.8516 19.9102
249 6 2 0.0000 -4.2784 19.0054 21.4302
250 6 3 0.0000 -1.8356 19.1238 21.9636
251 6 1 0.0000 -3.1477 18.3778 22.2649
252 6 2 0.0000 -3.3009 18.2428 23.7900
253 6 3 0.0000 -4.4518 16.0193 23.7227
254 6 1 0.0000 -4.5611 17.4718 24.2253
255 6 2 0.0000 -4.9787 17.4510 25.7063
256 6 3 0.0000 -6.3316 19.5561 25.6056
257 6 1 0.0000 -5.1644 18.8516 26.3211
258 6 2 0.0000 -5.3512 19.0054 27.8411
259 6 3 0.0000 -2.9084 19.1238 28.3745
260 6 1 0.0000 -4.2205 18.3778 28.6758
261 6 2 0.0000 -4.3737 18.2428 30.2009
262 6 3 0.0000 -5.5246 16.0193 30.1336
263 6 1 0.0000 -5.6339 17.4718 30.6362
264 6 2 0.0000 -6.0515 17.4510 32.1171
265 6 3 0.0000 -7.4044 19.5561 32.0165
266 6 1 0.0000 -6.2372 18.8516 32.7319
267 6 2 0.0000 -6.4240 19.0054 34.2519
268 6 3 0.0000 -3.9812 19.1238 34.7853
269 6 1 0.0000 -5.2934 18.3778 35.0866
270 6 2 0.0000 -5.4465 18.2428 36.6118
271 7 3 0.0000 -4.5484 26.4093 4.4902
272 7 1 0.0000 -4.6577 27.8618 4.9928
273 7 2 0.0000 -5.0752 27.8410 6.4737
274 7 3 0.0000 -6.4282 29.9461 6.3730
275 7 1 0.0000 -5.2610 29.2416 7.0885
276 7 2 0.0000 -5.4477 29.3954 8.6085
277 7 3 0.0000 -3.0050 29.5138 9.1419
278 7 1 0.0000 -4.3171 28.7678 9.4432
279 7 2 0.0000 -4.4702 28.6328 10.9683
280 7 3 0.0000 -5.6212 26.4093 10.9010
281 7 1 0.0000 -5.7305 27.8618 11.4036
282 7 2 0.0000 -6.1481 27.8410 12.8845
283 7 3 0.0000 -7.5010 29.9461 12.7839
284 7 1 0.0000 -6.3338 29.2416 13.4993
285 7 2 0.0000 -6.5205 29.3954 15.0194
286 7 3 0.0000 -4.0778 29.5138 15.5527
287 7 1 0.0000 -5.3899 28.7678 15.8540
288 7 2 0.0000 -5.5430 28.6328 17.3792
289 7 3 0.0000 -6.6940 26.4093 17.3119
290 7 1 0.0000 -6.8033 27.8618 17.8145
291 7 2 0.0000 -7.2209 27.8410 19.2954
292 7 3 0.0000 -8.5738 29.9461 19.1947
293 7 1 0.0000 -7.4066 29.2416 19.9102
294 7 2 0.0000 -7.5934 29.3954 21.4302
295 7 3 0.0000 -5.1506 29.5138 21.9636
296 7 1 0.0000 -6.4627 28.7678 22.2649
297 7 2 0.0000 -6.6159 28.6328 23.7900
298 7 3 0.0000 -7.7668 26.4093 23.7227
299 7 1 0.0000 -7.8761 27.8618 24.2253
300 7 2 0.0000 -8.2937 27.8410 25.7063
301 7 3 0.0000 -9.6466 29.9461 25.6056
302 7 1 0.0000 -8.4794 29.2416 26.3211
303 7 2 0.0000 -8.6662 29.3954 27.8411
304 7 3 0.0000 -6.2234 29.5138 28.3745
305 7 1 0.0000 -7.5355 28.7678 28.6758
306 7 2 0.0000 -7.6887 28.6328 30.2009
307 7 3 0.0000 -8.8396 26.4093 30.1336
308 7 1 0.0000 -8.9489 27.8618 30.6362
309 7 2 0.0000 -9.3665 27.8410 32.1171
310 7 3 0.0000 -10.7194 29.9461 32.0165
311 7 1 0.0000 -9.5522 29.2416 32.7319
312 7 2 0.0000 -9.7390 29.3954 34.2519
313 7 3 0.0000 -7.2962 29.5138 34.7853
314 7 1 0.0000 -8.6084 28.7678 35.0866
315 7 2 0.0000 -8.7615 28.6328 36.6118
316 8 3 0.0000 -4.0120 15.1507 1.2847
317 8 1 0.0000 -4.1213 13.6982 1.7873
318 8 2 0.0000 -4.5388 13.7190 3.2683
319 8 3 0.0000 -5.8918 11.6139 3.1676
320 8 1 0.0000 -4.7246 12.3184 3.8831
321 8 2 0.0000 -4.9113 12.1646 5.4031
322 8 3 0.0000 -2.4686 12.0462 5.9365
323 8 1 0.0000 -3.7807 12.7922 6.2378
324 8 2 0.0000 -3.9338 12.9272 7.7629
325 8 3 0.0000 -5.0848 15.1507 7.6956
326 8 1 0.0000 -5.1941 13.6982 8.1982
327 8 2 0.0000 -5.6117 13.7190 9.6791
328 8 3 0.0000 -6.9646 11.6139 9.5785
329 8 1 0.0000 -5.7974 12.3184 10.2939
330 8 2 0.0000 -5.9841 12.1646 11.8139
331 8 3 0.0000 -3.5414 12.0462 12.3473
332 8 1 0.0000 -4.8535 12.7922 12.6486
333 8 2 0.0000 -5.0066 12.9272 14.1738
334 8 3 0.0000 -6.1576 15.1507 14.1064
335 8 1 0.0000 -6.2669 13.6982 14.6091
336 8 2 0.0000 -6.6845 13.7190 16.0900
337 8 3 0.0000 -8.0374 11.6139 15.9893
338 8 1 0.0000 -6.8702 12.3184 16.7048
339 8 2 0.0000 -7.0570 12.1646 18.2248
340 8 3 0.0000 -4.6142 12.0462 18.7582
341 8 1 0.0000 -5.9263 12.7922 19.0595
342 8 2 0.0000 -6.0794 12.9272 20.5846
343 8 3 0.0000 -7.2304 15.1507 20.5173
344 8 1 0.0000 -7.3397 13.6982 21.0199
345 8 2 0.0000 -7.7573 13.7190 22.5008
346 8 3 0.0000 -9.1102 11.6139 22.4002
347 8 1 0.0000 -7.9430 12.3184 23.1156
348 8 2 0.0000 -8.1298 12.1646 24.6356
349 8 3 0.0000 -5.6870 12.0462 25.1690
350 8 1 0.0000 -6.9991 12.7922 25.4703
351 8 2 0.0000 -7.1523 12.9272 26.9955
352 8 3 0.0000 -8.3032 15.1507 26.9282
353 8 1 0.0000 -8.4125 13.6982 27.4308
354 8 2 0.0000 -8.8301 13.7190 28.9117
355 8 3 0.0000 -10.1830 11.6139 28.8110
356 8 1 0.0000 -9.0158 12.3184 29.5265
357 8 2 0.0000 -9.2026 12.1646 31.0465
358 8 3 0.0000 -6.7598 12.0462 31.5799
359 8 1 0.0000 -8.0719 12.7922 31.8812
360 8 2 0.0000 -8.2251 12.9272 33.4063
361 9 3 0.0000 5.9330 4.7607 1.2847
362 9 1 0.0000 5.8237 3.3082 1.7873
363 9 2 0.0000 5.4062 3.3290 3.2683
364 9 3 0.0000 4.0532 1.2239 3.1676
365 9 1 0.0000 5.2204 1.9284 3.8831
366 9 2 0.0000 5.0337 1.7746 5.4031
367 9 3 0.0000 7.4764 1.6562 5.9365
368 9 1 0.0000 6.1643 2.4022 6.2378
369 9 2 0.0000 6.0112 2.5372 7.7629
370 9 3 0.0000 4.8602 4.7607 7.6956
371 9 1 0.0000 4.7509 3.3082 8.1982
372 9 2 0.0000 4.3333 3.3290 9.6791
373 9 3 0.0000 2.9804 1.2239 9.5785
374 9 1 0.0000 4.1476 1.9284 10.2939
375 9 2 0.0000 3.9609 1.7746 11.8139
376 9 3 0.0000 6.4036 1.6562 12.3473
377 9 1 0.0000 5.0915 2.4022 12.6486
378 9 2 0.0000 4.9384 2.5372 14.1738
379 9 3 0.0000 3.7874 4.7607 14.1064
380 9 1 0.0000 3.6781 3.3082 14.6091
381 9 2 0.0000 3.2605 3.3290 16.0900
382 9 3 0.0000 1.9076 1.2239 15.9893
383 9 1 0.0000 3.0748 1.9284 16.7048
384 9 2 0.0000 2.8880 1.7746 18.2248
385 9 3 0.0000 5.3308 1.6562 18.7582
386 9 1 0.0000 4.0187 2.4022 19.0595
387 9 2 0.0000 3.8656 2.5372 20.5846
388 9 3 0.0000 2.7146 4.7607 20.5173
389 9 1 0.0000 2.6053 3.3082 21.0199
390 9 2 0.0000 2.1877 3.3290 22.5008
391 9 3 0.0000 0.8348 1.2239 22.4002
392 9 1 0.0000 2.0020 1.9284 23.1156
393 9 2 0.0000 1.8152 1.7746 24.6356
394 9 3 0.0000 4.2580 1.6562 25.1690
395 9 1 0.0000 2.9459 2.4022 25.4703
396 9 2 0.0000 2.7927 2.5372 26.9955
397 9 3 0.0000 1.6418 4.7607 26.9282
398 9 1 0.0000 1.5325 3.3082 27.4308
399 9 2 0.0000 1.1149 3.3290 28.9117
400 9 3 0.0000 -0.2380 1.2239 28.8110
401 9 1 0.0000 0.9292 1.9284 29.5265
402 9 2 0.0000 0.7424 1.7746 31.0465
403 9 3 0.0000 3.1852 1.6562 31.5799
404 9 1 0.0000 1.8731 2.4022 31.8812
405 9 2 0.0000 1.7199 2.5372 33.4063
406 10 3 0.0000 5.3966 -4.7607 4.4902
407 10 1 0.0000 5.2873 -3.3082 4.9928
408 10 2 0.0000 4.8698 -3.3290 6.4737
409 10 3 0.0000 3.5168 -1.2239 6.3730
410 10 1 0.0000 4.6840 -1.9284 7.0885
411 10 2 0.0000 4.4973 -1.7746 8.6085
412 10 3 0.0000 6.9400 -1.6562 9.1419
413 10 1 0.0000 5.6279 -2.4022 9.4432
414 10 2 0.0000 5.4748 -2.5372 10.9683
415 10 3 0.0000 4.3238 -4.7607 10.9010
416 10 1 0.0000 4.2145 -3.3082 11.4036
417 10 2 0.0000 3.7969 -3.3290 12.8845
418 10 3 0.0000 2.4440 -1.2239 12.7839
419 10 1 0.0000 3.6112 -1.9284 13.4993
420 10 2 0.0000 3.4245 -1.7746 15.0194
421 10 3 0.0000 5.8672 -1.6562 15.5527
422 10 1 0.0000 4.5551 -2.4022 15.8540
423 10 2 0.0000 4.4020 -2.5372 17.3792
424 10 3 0.0000 3.2510 -4.7607 17.3119
425 10 1 0.0000 3.1417 -3.3082 17.8145
426 10 2 0.0000 2.7241 -3.3290 19.2954
427 10 3 0.0000 1.3712 -1.2239 19.1947
428 10 1 0.0000 2.5384 -1.9284 19.9102
429 10 2 0.0000 2.3516 -1.7746 21.4302
430 10 3 0.0000 4.7944 -1.6562 21.9636
431 10 1 0.0000 3.4823 -2.4022 22.2649
432 10 2 0.0000 3.3291 -2.5372 23.7900
433 10 3 0.0000 2.1782 -4.7607 23.7227
434 10 1 0.0000 2.0689 -3.3082 24.2253
435 10 2 0.0000 1.6513 -3.3290 25.7063
436 10 3 0.0000 0.2984 -1.2239 25.6056
437 10 1 0.0000 1.4656 -1.9284 26.3211
438 10 2 0.0000 1.2788 -1.7746 27.8411
439 10 3 0.0000 3.7216 -1.6562 28.3745
440 10 1 0.0000 2.4095 -2.4022 28.6758
441 10 2 0.0000 2.2563 -2.5372 30.2009
442 10 3 0.0000 1.1054 -4.7607 30.1336
443 10 1 0.0000 0.9961 -3.3082 30.6362
444 10 2 0.0000 0.5785 -3.3290 32.1171
445 10 3 0.0000 -0.7744 -1.2239 32.0165
446 10 1 0.0000 0.3928 -1.9284 32.7319
447 10 2 0.0000 0.2060 -1.7746 34.2519
448 10 3 0.0000 2.6488 -1.6562 34.7853
449 10 1 0.0000 1.3366 -2.4022 35.0866
450 10 2 0.0000 1.1835 -2.5372 36.6118
451 11 3 0.0000 2.0816 5.6293 4.4902
452 11 1 0.0000 1.9723 7.0818 4.9928
453 11 2 0.0000 1.5548 7.0610 6.4737
454 11 3 0.0000 0.2018 9.1661 6.3730
455 11 1 0.0000 1.3690 8.4616 7.0885
456 11 2 0.0000 1.1823 8.6154 8.6085
457 11 3 0.0000 3.6250 8.7338 9.1419
458 11 1 0.0000 2.3129 7.9878 9.4432
459 11 2 0.0000 2.1598 7.8528 10.9683
460 11 3 0.0000 1.0088 5.6293 10.9010
461 11 1 0.0000 0.8995 7.0818 11.4036
462 11 2 0.0000 0.4819 7.0610 12.8845
463 11 3 0.0000 -0.8710 9.1661 12.7839
464 11 1 0.0000 0.2962 8.4616 13.4993
465 11 2 0.0000 0.1095 8.6154 15.0194
466 11 3 0.0000 2.5522 8.7338 15.5527
467 11 1 0.0000 1.2401 7.9878 15.8540
468 11 2 0.0000 1.0870 7.8528 17.3792
469 11 3 0.0000 -0.0640 5.6293 17.3119
470 11 1 0.0000 -0.1733 7.0818 17.8145
471 11 2 0.0000 -0.5909 7.0610 19.2954
472 11 3 0.0000 -1.9438 9.1661 19.1947
473 11 1 0.0000 -0.7766 8.4616 19.9102
474 11 2 0.0000 -0.9634 8.6154 21.4302
475 11 3 0.0000 1.4794 8.7338 21.9636
476 11 1 0.0000 0.1673 7.9878 22.2649
477 11 2 0.0000 0.0141 7.8528 23.7900
478 11 3 0.0000 -1.1368 5.6293 23.7227
479 11 1 0.0000 -1.2461 7.0818 24.2253
480 11 2 0.0000 -1.6637 7.0610 25.7063
481 11 3 0.0000 -3.0166 9.1661 25.6056
482 11 1 0.0000 -1.8494 8.4616 26.3211
483 11 2 0.0000 -2.0362 8.6154 27.8411
484 11 3 0.0000 0.4066 8.7338 28.3745
485 11 1 0.0000 -0.9055 7.9878 28.6758
486 11 2 0.0000 -1.0587 7.8528 30.2009
487 11 3 0.0000 -2.2096 5.6293 30.1336
488 11 1 0.0000 -2.3189 7.0818 30.6362
489 11 2 0.0000 -2.7365 7.0610 32.1171
490 11 3 0.0000 -4.0894 9.1661 32.0165
491 11 1 0.0000 -2.9222 8.4616 32.7319
492 11 2 0.0000 -3.1090 8.6154 34.2519
493 11 3 0.0000 -0.6662 8.7338 34.7853
494 11 1 0.0000 -1.9784 7.9878 35.0866
495 11 2 0.0000 -2.1315 7.8528 36.6118
496 12 3 0.0000 2.6180 -5.6293 1.2847
497 12 1 0.0000 2.5087 -7.0818 1.7873
498 12 2 0.0000 2.0912 -7.0610 3.2683
499 12 3 0.0000 0.7382 -9.1661 3.1676
500 12 1 0.0000 1.9054 -8.4616 3.8831
501 12 2 0.0000 1.7187 -8.6154 5.4031
502 12 3 0.0000 4.1614 -8.7338 5.9365
503 12 1 0.0000 2.8493 -7.9878 6.2378
504 12 2 0.0000 2.6962 -7.8528 7.7629
505 12 3 0.0000 1.5452 -5.6293 7.6956
506 12 1 0.0000 1.4359 -7.0818 8.1982
507 12 2 0.0000 1.0183 -7.0610 9.6791
508 12 3 0.0000 -0.3346 -9.1661 9.5785
509 12 1 0.0000 0.8326 -8.4616 10.2939
510 12 2 0.0000 0.6459 -8.6154 11.8139
511 12 3 0.0000 3.0886 -8.7338 12.3473
512 12 1 0.0000 1.7765 -7.9878 12.6486
513 12 2 0.0000 1.6234 -7.8528 14.1738
514 12 3 0.0000 0.4724 -5.6293 14.1064
515 12 1 0.0000 0.3631 -7.0818 14.6091
516 12 2 0.0000 -0.0545 -7.0610 16.0900
517 12 3 0.0000 -1.4074 -9.1661 15.9893
518 12 1 0.0000 -0.2402 -8.4616 16.7048
519 12 2 0.0000 -0.4270 -8.6154 18.2248
520 12 3 0.0000 2.0158 -8.7338 18.7582
521 12 1 0.0000 0.7037 -7.9878 19.0595
522 12 2 0.0000 0.5506 -7.8528 20.5846
523 12 3 0.0000 -0.6004 -5.6293 20.5173
524 12 1 0.0000 -0.7097 -7.0818 21.0199
525 12 2 0.0000 -1.1273 -7.0610 22.5008
526 12 3 0.0000 -2.4802 -9.1661 22.4002
527 12 1 0.0000 -1.3130 -8.4616 23.1156
528 12 2 0.0000 -1.4998 -8.6154 24.6356
529 12 3 0.0000 0.9430 -8.7338 25.1690
530 12 1 0.0000 -0.3691 -7.9878 25.4703
531 12 2 0.0000 -0.5223 -7.8528 26.9955
532 12 3 0.0000 -1.6732 -5.6293 26.9282
533 12 1 0.0000 -1.7825 -7.0818 27.4308
534 12 2 0.0000 -2.2001 -7.0610 28.9117
535 12 3 0.0000 -3.5530 -9.1661 28.8110
536 12 1 0.0000 -2.3858 -8.4616 29.5265
537 12 2 0.0000 -2.5726 -8.6154 31.0465
538 12 3 0.0000 -0.1298 -8.7338 31.5799
539 12 1 0.0000 -1.4419 -7.9878 31.8812
540 12 2 0.0000 -1.5951 -7.8528 33.4063
541 13 3 0.0000 5.9330 25.5407 1.2847
542 13 1 0.0000 5.8237 24.0882 1.7873
543 13 2 0.0000 5.4062 24.1090 3.2683
544 13 3 0.0000 4.0532 22.0039 3.1676
545 13 1 0.0000 5.2204 22.7084 3.8831
546 13 2 0.0000 5.0337 22.5546 5.4031
547 13 3 0.0000 7.4764 22.4362 5.9365
548 13 1 0.0000 6.1643 23.1822 6.2378
549 13 2 0.0000 6.0112 23.3172 7.7629
550 13 3 0.0000 4.8602 25.5407 7.6956
551 13 1 0.0000 4.7509 24.0882 8.1982
552 13 2 0.0000 4.3333 24.1090 9.6791
553 13 3 0.0000 2.9804 22.0039 9.5785
554 13 1 0.0000 4.1476 22.7084 10.2939
555 13 2 0.0000 3.9609 22.5546 11.8139
556 13 3 0.0000 6.4036 22.4362 12.3473
557 13 1 0.0000 5.0915 23.1822 12.6486
558 13 2 0.0000 4.9384 23.3172 14.1738
559 13 3 0.0000 3.7874 25.5407 14.1064
560 13 1 0.0000 3.6781 24.0882 14.6091
561 13 2 0.0000 3.2605 24.1090 16.0900
562 13 3 0.0000 1.9076 22.0039 15.9893
563 13 1 0.0000 3.0748 22.7084 16.7048
564 13 2 0.0000 2.8880 22.5546 18.2248
565 13 3 0.0000 5.3308 22.4362 18.7582
566 13 1 0.0000 4.0187 23.1822 19.0595
567 13 2 0.0000 3.8656 23.3172 20.5846
568 13 3 0.0000 2.7146 25.5407 20.5173
569 13 1 0.0000 2.6053 24.0882 21.0199
570 13 2 0.0000 2.1877 24.1090 22.5008
571 13 3 0.0000 0.8348 22.0039 22.4002
572 13 1 0.0000 2.0020 22.7084 23.1156
573 13 2 0.0000 1.8152 22.5546 24.6356
574 13 3 0.0000 4.2580 22.4362 25.1690
575 13 1 0.0000 2.9459 23.1822 25.4703
576 13 2 0.0000 2.7927 23.3172 26.9955
577 13 3 0.0000 1.6418 25.5407 26.9282
578 13 1 0.0000 1.5325 24.0882 27.4308
579 13 2 0.0000 1.1149 24.1090 28.9117
580 13 3 0.0000 -0.2380 22.0039 28.8110
581 13 1 0.0000 0.9292 22.7084 29.5265
582 13 2 0.0000 0.7424 22.5546 31.0465
583 13 3 0.0000 3.1852 22.4362 31.5799
584 13 1 0.0000 1.8731 23.1822 31.8812
585 13 2 0.0000 1.7199 23.3172 33.4063
586 14 3 0.0000 5.3966 16.0193 4.4902
587 14 1 0.0000 5.2873 17.4718 4.9928
588 14 2 0.0000 4.8698 17.4510 6.4737
589 14 3 0.0000 3.5168 19.5561 6.3730
590 14 1 0.0000 4.6840 18.8516 7.0885
591 14 2 0.0000 4.4973 19.0054 8.6085
592 14 3 0.0000 6.9400 19.1238 9.1419
593 14 1 0.0000 5.6279 18.3778 9.4432
594 14 2 0.0000 5.4748 18.2428 10.9683
595 14 3 0.0000 4.3238 16.0193 10.9010
596 14 1 0.0000 4.2145 17.4718 11.4036
597 14 2 0.0000 3.7969 17.4510 12.8845
598 14 3 0.0000 2.4440 19.5561 12.7839
599 14 1 0.0000 3.6112 18.8516 13.4993
600 14 2 0.0000 3.4245 19.0054 15.0194
601 14 3 0.0000 5.8672 19.1238 15.5527
602 14 1 0.0000 4.5551 18.3778 15.8540
603 14 2 0.0000 4.4020 18.2428 17.3792
604 14 3 0.0000 3.2510 16.0193 17.3119
605 14 1 0.0000 3.1417 17.4718 17.8145
606 14 2 0.0000 2.7241 17.4510 19.2954
607 14 3 0.0000 1.3712 19.5561 19.1947
608 14 1 0.0000 2.5384 18.8516 19.9102
609 14 2 0.0000 2.3516 19.0054 21.4302
610 14 3 0.0000 4.7944 19.1238 21.9636
611 14 1 0.0000 3.4823 18.3778 22.2649
612 14 2 0.0000 3.3291 18.2428 23.7900
613 14 3 0.0000 2.1782 16.0193 23.7227
614 14 1 0.0000 2.0689 17.4718 24.2253
615 14 2 0.0000 1.6513 17.4510 25.7063
616 14 3 0.0000 0.2984 19.5561 25.6056
617 14 1 0.0000 1.4656 18.8516 26.3211
618 14 2 0.0000 1.2788 19.0054 27.8411
619 14 3 0.0000 3.7216 19.1238 28.3745
620 14 1 0.0000 2.4095 18.3778 28.6758
621 14 2 0.0000 2.2563 18.2428 30.2009
622 14 3 0.0000 1.1054 16.0193 30.1336
623 14 1 0.0000 0.9961 17.4718 30.6362
624 14 2 0.0000 0.5785 17.4510 32.1171
625 14 3 0.0000 -0.7744 19.5561 32.0165
626 14 1 0.0000 0.3928 18.8516 32.7319
627 14 2 0.0000 0.2060 19.0054 34.2519
628 14 3 0.0000 2.6488 19.1238 34.7853
629 14 1 0.0000 1.3366 18.3778 35.0866
630 14 2 0.0000 1.1835 18.2428 36.6118
631 15 3 0.0000 2.0816 26.4093 4.4902
632 15 1 0.0000 1.9723 27.8618 4.9928
633 15 2 0.0000 1.5548 27.8410 6.4737
634 15 3 0.0000 0.2018 29.9461 6.3730
635 15 1 0.0000 1.3690 29.2416 7.0885
636 15 2 0.0000 1.1823 29.3954 8.6085
637 15 3 0.0000 3.6250 29.5138 9.1419
638 15 1 0.0000 2.3129 28.7678 9.4432
639 15 2 0.0000 2.1598 28.6328 10.9683
640 15 3 0.0000 1.0088 26.4093 10.9010
641 15 1 0.0000 0.8995 27.8618 11.4036
642 15 2 0.0000 0.4819 27.8410 12.8845
643 15 3 0.0000 -0.8710 29.9461 12.7839
644 15 1 0.0000 0.2962 29.2416 13.4993
645 15 2 0.0000 0.1095 29.3954 15.0194
646 15 3 0.0000 2.5522 29.5138 15.5527
647 15 1 0.0000 1.2401 28.7678 15.8540
648 15 2 0.0000 1.0870 28.6328 17.3792
649 15 3 0.0000 -0.0640 26.4093 17.3119
650 15 1 0.0000 -0.1733 27.8618 17.8145
651 15 2 0.0000 -0.5909 27.8410 19.2954
652 15 3 0.0000 -1.9438 29.9461 19.1947
653 15 1 0.0000 -0.7766 29.2416 19.9102
654 15 2 0.0000 -0.9634 29.3954 21.4302
655 15 3 0.0000 1.4794 29.5138 21.9636
656 15 1 0.0000 0.1673 28.7678 22.2649
657 15 2 0.0000 0.0141 28.6328 23.7900
658 15 3 0.0000 -1.1368 26.4093 23.7227
659 15 1 0.0000 -1.2461 27.8618 24.2253
660 15 2 0.0000 -1.6637 27.8410 25.7063
661 15 3 0.0000 -3.0166 29.9461 25.6056
662 15 1 0.0000 -1.8494 29.2416 26.3211
663 15 2 0.0000 -2.0362 29.3954 27.8411
664 15 3 0.0000 0.4066 29.5138 28.3745
665 15 1 0.0000 -0.9055 28.7678 28.6758
666 15 2 0.0000 -1.0587 28.6328 30.2009
667 15 3 0.0000 -2.2096 26.4093 30.1336
668 15 1 0.0000 -2.3189 27.8618 30.6362
669 15 2 0.0000 -2.7365 27.8410 32.1171
670 15 3 0.0000 -4.0894 29.9461 32.0165
671 15 1 0.0000 -2.9222 29.2416 32.7319
672 15 2 0.0000 -3.1090 29.3954 34.2519
673 15 3 0.0000 -0.6662 29.5138 34.7853
674 15 1 0.0000 -1.9784 28.7678 35.0866
675 15 2 0.0000 -2.1315 28.6328 36.6118
676 16 3 0.0000 2.6180 15.1507 1.2847
677 16 1 0.0000 2.5087 13.6982 1.7873
678 16 2 0.0000 2.0912 13.7190 3.2683
679 16 3 0.0000 0.7382 11.6139 3.1676
680 16 1 0.0000 1.9054 12.3184 3.8831
681 16 2 0.0000 1.7187 12.1646 5.4031
682 16 3 0.0000 4.1614 12.0462 5.9365
683 16 1 0.0000 2.8493 12.7922 6.2378
684 16 2 0.0000 2.6962 12.9272 7.7629
685 16 3 0.0000 1.5452 15.1507 7.6956
686 16 1 0.0000 1.4359 13.6982 8.1982
687 16 2 0.0000 1.0183 13.7190 9.6791
688 16 3 0.0000 -0.3346 11.6139 9.5785
689 16 1 0.0000 0.8326 12.3184 10.2939
690 16 2 0.0000 0.6459 12.1646 11.8139
691 16 3 0.0000 3.0886 12.0462 12.3473
692 16 1 0.0000 1.7765 12.7922 12.6486
693 16 2 0.0000 1.6234 12.9272 14.1738
694 16 3 0.0000 0.4724 15.1507 14.1064
695 16 1 0.0000 0.3631 13.6982 14.6091
696 16 2 0.0000 -0.0545 13.7190 16.0900
697 16 3 0.0000 -1.4074 11.6139 15.9893
698 16 1 0.0000 -0.2402 12.3184 16.7048
699 16 2 0.0000 -0.4270 12.1646 18.2248
700 16 3 0.0000 2.0158 12.0462 18.7582
701 16 1 0.0000 0.7037 12.7922 19.0595
702 16 2 0.0000 0.5506 12.9272 20.5846
703 16 3 0.0000 -0.6004 15.1507 20.5173
704 16 1 0.0000 -0.7097 13.6982 21.0199
705 16 2 0.0000 -1.1273 13.7190 22.5008
706 16 3 0.0000 -2.4802 11.6139 22.4002
707 16 1 0.0000 -1.3130 12.3184 23.1156
708 16 2 0.0000 -1.4998 12.1646 24.6356
709 16 3 0.0000 0.9430 12.0462 25.1690
710 16 1 0.0000 -0.3691 12.7922 25.4703
711 16 2 0.0000 -0.5223 12.9272 26.9955
712 16 3 0.0000 -1.6732 15.1507 26.9282
713 16 1 0.0000 -1.7825 13.6982 27.4308
714 16 2 0.0000 -2.2001 13.7190 28.9117
715 16 3 0.0000 -3.5530 11.6139 28.8110
716 16 1 0.0000 -2.3858 12.3184 29.5265
717 16 2 0.0000 -2.5726 12.1646 31.0465
718 16 3 0.0000 -0.1298 12.0462 31.5799
719 16 1 0.0000 -1.4419 12.7922 31.8812
720 16 2 0.0000 -1.5951 12.9272 33.4063
721 17 3 0.0000 12.5630 4.7607 1.2847
722 17 1 0.0000 12.4537 3.3082 1.7873
723 17 2 0.0000 12.0362 3.3290 3.2683
724 17 3 0.0000 10.6832 1.2239 3.1676
725 17 1 0.0000 11.8504 1.9284 3.8831
726 17 2 0.0000 11.6637 1.7746 5.4031
727 17 3 0.0000 14.1064 1.6562 5.9365
728 17 1 0.0000 12.7943 2.4022 6.2378
729 17 2 0.0000 12.6412 2.5372 7.7629
730 17 3 0.0000 11.4902 4.7607 7.6956
731 17 1 0.0000 11.3809 3.3082 8.1982
732 17 2 0.0000 10.9633 3.3290 9.6791
733 17 3 0.0000 9.6104 1.2239 9.5785
734 17 1 0.0000 10.7776 1.9284 10.2939
735 17 2 0.0000 10.5909 1.7746 11.8139
736 17 3 0.0000 13.0336 1.6562 12.3473
737 17 1 0.0000 11.7215 2.4022 12.6486
738 17 2 0.0000 11.5684 2.5372 14.1738
739 17 3 0.0000 10.4174 4.7607 14.1064
740 17 1 0.0000 10.3081 3.3082 14.6091
741 17 2 0.0000 9.8905 3.3290 16.0900
742 17 3 0.0000 8.5376 1.2239 15.9893
743 17 1 0.0000 9.7048 1.9284 16.7048
744 17 2 0.0000 9.5180 1.7746 18.2248
745 17 3 0.0000 11.9608 1.6562 18.7582
746 17 1 0.0000 10.6487 2.4022 19.0595
747 17 2 0.0000 10.4956 2.5372 20.5846
748 17 3 0.0000 9.3446 4.7607 20.5173
749 17 1 0.0000 9.2353 3.3082 21.0199
750 17 2 0.0000 8.8177 3.3290 22.5008
751 17 3 0.0000 7.4648 1.2239 22.4002
752 17 1 0.0000 8.6320 1.9284 23.1156
753 17 2 0.0000 8.4452 1.7746 24.6356
754 17 3 0.0000 10.8880 1.6562 25.1690
755 17 1 0.0000 9.5759 2.4022 25.4703
756 17 2 0.0000 9.4227 2.5372 26.9955
757 17 3 0.0000 8.2718 4.7607 26.9282
758 17 1 0.0000 8.1625 3.3082 27.4308
759 17 2 0.0000 7.7449 3.3290 28.9117
760 17 3 0.0000 6.3920 1.2239 28.8110
761 17 1 0.0000 7.5592 1.9284 29.5265
762 17 2 0.0000 7.3724 1.7746 31.0465
763 17 3 0.0000 9.8152 1.6562 31.5799
764 17 1 0.0000 8.5031 2.4022 31.8812
765 17 2 0.0000 8.3499 2.5372 33.4063
766 18 3 0.0000 12.0266 -4.7607 4.4902
767 18 1 0.0000 11.9173 -3.3082 4.9928
768 18 2 0.0000 11.4998 -3.3290 6.4737
769 18 3 0.0000 10.1468 -1.2239 6.3730
770 18 1 0.0000 11.3140 -1.9284 7.0885
771 18 2 0.0000 11.1273 -1.7746 8.6085
772 18 3 0.0000 13.5700 -1.6562 9.1419